------------------------------------------------------------
          Invoking FHI-aims ...

          When using FHI-aims, please cite the following reference:

            Volker Blum, Ralf Gehrke, Felix Hanke, Paula Havu,
            Ville Havu, Xinguo Ren, Karsten Reuter, and Matthias Scheffler,
            'Ab Initio Molecular Simulations with Numeric Atom-Centered Orbitals',
            Computer Physics Communications 180, 2175-2196 (2009)

          In addition, many other developments in FHI-aims are likely important for
          your particular application. If so, please cite them. A partial list of references
          is written at the end of this file. Thank you for giving credit to the authors
          of these developments.

          For general information about FHI-aims please find us at

            https://fhi-aims.org

          Online tutorials can be found at

            https://fhi-aims-club.gitlab.io/tutorials/tutorials-overview/

          For any questions about FHI-aims, please visit our slack channel at

            https://fhi-aims.slack.com

          and our main development and support site at

            https://aims-git.rz-berlin.mpg.de .

          The latter site, in particular, has a wiki to collect information, as well
          as an issue tracker to log discussions, suggest improvements, and report issues
          or bugs. https://aims-git.rz-berlin.mpg.de is also the main development site
          of the project and all new and updated code versions can be obtained there.
          Please send an email to aims-coordinators@fhi-berlin.mpg.de and we will add
          you to these sites. They are for you and everyone is welcome there.

------------------------------------------------------------



  Date     :  20251121, Time     :  002046.110
  Time zero on CPU 1             :   0.119870000000000E+00  s.
  Internal wall clock time zero  :           532916446.110  s.

  FHI-aims created a unique identifier for this run for later identification
  aims_uuid : 94F8AA41-78C6-4421-A12D-6563459E58C2

  Build configuration of the current instance of FHI-aims
  -------------------------------------------------------
  FHI-aims version      : 250507
  Commit number         : 4f8102d33
  CMake host system     : Linux-6.4.0-150600.23.38-default
  CMake version         : 3.28.3
  Fortran compiler      : /mpcdf/soft/SLE_15/packages/x86_64/intel_parallel_studio/2020.2/compilers_and_libraries_2020.2.254/linux/mpi/intel64/bin/mpiifort (Intel) version 19.1.2.20200623
  Fortran compiler flags: -O3 -fp-model precise -O2 -g
  C compiler            : /mpcdf/soft/SLE_15/packages/x86_64/intel/19.1.2/bin/icc (Intel) version 19.1.2.20200623
  C compiler flags      : -O3 -ip -fp-model-precise -std=gnu99 -O2 -g -DNDEBUG
  C++ compiler          : /mpcdf/soft/SLE_15/packages/x86_64/intel/19.1.2/bin/icpc (Intel) version 19.1.2.20200623
  C++ compiler flags    : -O3 -ip -fp-model precise -O2 -g -DNDEBUG
  HIP compiler          :
  HIP compiler flags    :
  HIP GPU arch          :
  Using MPI
  Using ScaLAPACK
  Using LibXC
  Using i-PI
  Using RLSY
  Linking against: /mpcdf/soft/SLE_15/packages/x86_64/intel_oneapi/2021.2/mkl/latest/lib/intel64/libmkl_intel_lp64.so
                   /mpcdf/soft/SLE_15/packages/x86_64/intel_oneapi/2021.2/mkl/latest/lib/intel64/libmkl_sequential.so
                   /mpcdf/soft/SLE_15/packages/x86_64/intel_oneapi/2021.2/mkl/latest/lib/intel64/libmkl_core.so
                   /mpcdf/soft/SLE_15/packages/x86_64/intel_oneapi/2021.2/mkl/latest/lib/intel64/libmkl_blacs_intelmpi_lp64.so
                   /mpcdf/soft/SLE_15/packages/x86_64/intel_oneapi/2021.2/mkl/latest/lib/intel64/libmkl_scalapack_lp64.so

  Using      576 parallel tasks.
  Task        0 on host ravc2289 reporting.
  Task        1 on host ravc2289 reporting.
  Task        2 on host ravc2289 reporting.
  Task        3 on host ravc2289 reporting.
  Task        4 on host ravc2289 reporting.
  Task        5 on host ravc2289 reporting.
  Task        6 on host ravc2289 reporting.
  Task        7 on host ravc2289 reporting.
  Task        8 on host ravc2289 reporting.
  Task        9 on host ravc2289 reporting.
  Task       10 on host ravc2289 reporting.
  Task       11 on host ravc2289 reporting.
  Task       12 on host ravc2289 reporting.
  Task       13 on host ravc2289 reporting.
  Task       14 on host ravc2289 reporting.
  Task       15 on host ravc2289 reporting.
  Task       16 on host ravc2289 reporting.
  Task       17 on host ravc2289 reporting.
  Task       18 on host ravc2289 reporting.
  Task       19 on host ravc2289 reporting.
  Task       20 on host ravc2289 reporting.
  Task       21 on host ravc2289 reporting.
  Task       22 on host ravc2289 reporting.
  Task       23 on host ravc2289 reporting.
  Task       24 on host ravc2289 reporting.
  Task       25 on host ravc2289 reporting.
  Task       26 on host ravc2289 reporting.
  Task       27 on host ravc2289 reporting.
  Task       28 on host ravc2289 reporting.
  Task       29 on host ravc2289 reporting.
  Task       30 on host ravc2289 reporting.
  Task       31 on host ravc2289 reporting.
  Task       32 on host ravc2289 reporting.
  Task       33 on host ravc2289 reporting.
  Task       34 on host ravc2289 reporting.
  Task       35 on host ravc2289 reporting.
  Task       36 on host ravc2289 reporting.
  Task       37 on host ravc2289 reporting.
  Task       38 on host ravc2289 reporting.
  Task       39 on host ravc2289 reporting.
  Task       40 on host ravc2289 reporting.
  Task       41 on host ravc2289 reporting.
  Task       42 on host ravc2289 reporting.
  Task       43 on host ravc2289 reporting.
  Task       44 on host ravc2289 reporting.
  Task       45 on host ravc2289 reporting.
  Task       46 on host ravc2289 reporting.
  Task       47 on host ravc2289 reporting.
  Task       48 on host ravc2289 reporting.
  Task       49 on host ravc2289 reporting.
  Task       50 on host ravc2289 reporting.
  Task       51 on host ravc2289 reporting.
  Task       52 on host ravc2289 reporting.
  Task       53 on host ravc2289 reporting.
  Task       54 on host ravc2289 reporting.
  Task       55 on host ravc2289 reporting.
  Task       56 on host ravc2289 reporting.
  Task       57 on host ravc2289 reporting.
  Task       58 on host ravc2289 reporting.
  Task       59 on host ravc2289 reporting.
  Task       60 on host ravc2289 reporting.
  Task       61 on host ravc2289 reporting.
  Task       62 on host ravc2289 reporting.
  Task       63 on host ravc2289 reporting.
  Task       64 on host ravc2289 reporting.
  Task       65 on host ravc2289 reporting.
  Task       66 on host ravc2289 reporting.
  Task       67 on host ravc2289 reporting.
  Task       68 on host ravc2289 reporting.
  Task       69 on host ravc2289 reporting.
  Task       70 on host ravc2289 reporting.
  Task       71 on host ravc2289 reporting.
  Task       72 on host ravc2290 reporting.
  Task       73 on host ravc2290 reporting.
  Task       74 on host ravc2290 reporting.
  Task       75 on host ravc2290 reporting.
  Task       76 on host ravc2290 reporting.
  Task       77 on host ravc2290 reporting.
  Task       78 on host ravc2290 reporting.
  Task       79 on host ravc2290 reporting.
  Task       80 on host ravc2290 reporting.
  Task       81 on host ravc2290 reporting.
  Task       82 on host ravc2290 reporting.
  Task       83 on host ravc2290 reporting.
  Task       84 on host ravc2290 reporting.
  Task       85 on host ravc2290 reporting.
  Task       86 on host ravc2290 reporting.
  Task       87 on host ravc2290 reporting.
  Task       88 on host ravc2290 reporting.
  Task       89 on host ravc2290 reporting.
  Task       90 on host ravc2290 reporting.
  Task       91 on host ravc2290 reporting.
  Task       92 on host ravc2290 reporting.
  Task       93 on host ravc2290 reporting.
  Task       94 on host ravc2290 reporting.
  Task       95 on host ravc2290 reporting.
  Task       96 on host ravc2290 reporting.
  Task       97 on host ravc2290 reporting.
  Task       98 on host ravc2290 reporting.
  Task       99 on host ravc2290 reporting.
  Task      100 on host ravc2290 reporting.
  Task      101 on host ravc2290 reporting.
  Task      102 on host ravc2290 reporting.
  Task      103 on host ravc2290 reporting.
  Task      104 on host ravc2290 reporting.
  Task      105 on host ravc2290 reporting.
  Task      106 on host ravc2290 reporting.
  Task      107 on host ravc2290 reporting.
  Task      108 on host ravc2290 reporting.
  Task      109 on host ravc2290 reporting.
  Task      110 on host ravc2290 reporting.
  Task      111 on host ravc2290 reporting.
  Task      112 on host ravc2290 reporting.
  Task      113 on host ravc2290 reporting.
  Task      114 on host ravc2290 reporting.
  Task      115 on host ravc2290 reporting.
  Task      116 on host ravc2290 reporting.
  Task      117 on host ravc2290 reporting.
  Task      118 on host ravc2290 reporting.
  Task      119 on host ravc2290 reporting.
  Task      120 on host ravc2290 reporting.
  Task      121 on host ravc2290 reporting.
  Task      122 on host ravc2290 reporting.
  Task      123 on host ravc2290 reporting.
  Task      124 on host ravc2290 reporting.
  Task      125 on host ravc2290 reporting.
  Task      126 on host ravc2290 reporting.
  Task      127 on host ravc2290 reporting.
  Task      128 on host ravc2290 reporting.
  Task      129 on host ravc2290 reporting.
  Task      130 on host ravc2290 reporting.
  Task      131 on host ravc2290 reporting.
  Task      132 on host ravc2290 reporting.
  Task      133 on host ravc2290 reporting.
  Task      134 on host ravc2290 reporting.
  Task      135 on host ravc2290 reporting.
  Task      136 on host ravc2290 reporting.
  Task      137 on host ravc2290 reporting.
  Task      138 on host ravc2290 reporting.
  Task      139 on host ravc2290 reporting.
  Task      140 on host ravc2290 reporting.
  Task      141 on host ravc2290 reporting.
  Task      142 on host ravc2290 reporting.
  Task      143 on host ravc2290 reporting.
  Task      144 on host ravc2291 reporting.
  Task      145 on host ravc2291 reporting.
  Task      146 on host ravc2291 reporting.
  Task      147 on host ravc2291 reporting.
  Task      148 on host ravc2291 reporting.
  Task      149 on host ravc2291 reporting.
  Task      150 on host ravc2291 reporting.
  Task      151 on host ravc2291 reporting.
  Task      152 on host ravc2291 reporting.
  Task      153 on host ravc2291 reporting.
  Task      154 on host ravc2291 reporting.
  Task      155 on host ravc2291 reporting.
  Task      156 on host ravc2291 reporting.
  Task      157 on host ravc2291 reporting.
  Task      158 on host ravc2291 reporting.
  Task      159 on host ravc2291 reporting.
  Task      160 on host ravc2291 reporting.
  Task      161 on host ravc2291 reporting.
  Task      162 on host ravc2291 reporting.
  Task      163 on host ravc2291 reporting.
  Task      164 on host ravc2291 reporting.
  Task      165 on host ravc2291 reporting.
  Task      166 on host ravc2291 reporting.
  Task      167 on host ravc2291 reporting.
  Task      168 on host ravc2291 reporting.
  Task      169 on host ravc2291 reporting.
  Task      170 on host ravc2291 reporting.
  Task      171 on host ravc2291 reporting.
  Task      172 on host ravc2291 reporting.
  Task      173 on host ravc2291 reporting.
  Task      174 on host ravc2291 reporting.
  Task      175 on host ravc2291 reporting.
  Task      176 on host ravc2291 reporting.
  Task      177 on host ravc2291 reporting.
  Task      178 on host ravc2291 reporting.
  Task      179 on host ravc2291 reporting.
  Task      180 on host ravc2291 reporting.
  Task      181 on host ravc2291 reporting.
  Task      182 on host ravc2291 reporting.
  Task      183 on host ravc2291 reporting.
  Task      184 on host ravc2291 reporting.
  Task      185 on host ravc2291 reporting.
  Task      186 on host ravc2291 reporting.
  Task      187 on host ravc2291 reporting.
  Task      188 on host ravc2291 reporting.
  Task      189 on host ravc2291 reporting.
  Task      190 on host ravc2291 reporting.
  Task      191 on host ravc2291 reporting.
  Task      192 on host ravc2291 reporting.
  Task      193 on host ravc2291 reporting.
  Task      194 on host ravc2291 reporting.
  Task      195 on host ravc2291 reporting.
  Task      196 on host ravc2291 reporting.
  Task      197 on host ravc2291 reporting.
  Task      198 on host ravc2291 reporting.
  Task      199 on host ravc2291 reporting.
  Task      200 on host ravc2291 reporting.
  Task      201 on host ravc2291 reporting.
  Task      202 on host ravc2291 reporting.
  Task      203 on host ravc2291 reporting.
  Task      204 on host ravc2291 reporting.
  Task      205 on host ravc2291 reporting.
  Task      206 on host ravc2291 reporting.
  Task      207 on host ravc2291 reporting.
  Task      208 on host ravc2291 reporting.
  Task      209 on host ravc2291 reporting.
  Task      210 on host ravc2291 reporting.
  Task      211 on host ravc2291 reporting.
  Task      212 on host ravc2291 reporting.
  Task      213 on host ravc2291 reporting.
  Task      214 on host ravc2291 reporting.
  Task      215 on host ravc2291 reporting.
  Task      216 on host ravc2292 reporting.
  Task      217 on host ravc2292 reporting.
  Task      218 on host ravc2292 reporting.
  Task      219 on host ravc2292 reporting.
  Task      220 on host ravc2292 reporting.
  Task      221 on host ravc2292 reporting.
  Task      222 on host ravc2292 reporting.
  Task      223 on host ravc2292 reporting.
  Task      224 on host ravc2292 reporting.
  Task      225 on host ravc2292 reporting.
  Task      226 on host ravc2292 reporting.
  Task      227 on host ravc2292 reporting.
  Task      228 on host ravc2292 reporting.
  Task      229 on host ravc2292 reporting.
  Task      230 on host ravc2292 reporting.
  Task      231 on host ravc2292 reporting.
  Task      232 on host ravc2292 reporting.
  Task      233 on host ravc2292 reporting.
  Task      234 on host ravc2292 reporting.
  Task      235 on host ravc2292 reporting.
  Task      236 on host ravc2292 reporting.
  Task      237 on host ravc2292 reporting.
  Task      238 on host ravc2292 reporting.
  Task      239 on host ravc2292 reporting.
  Task      240 on host ravc2292 reporting.
  Task      241 on host ravc2292 reporting.
  Task      242 on host ravc2292 reporting.
  Task      243 on host ravc2292 reporting.
  Task      244 on host ravc2292 reporting.
  Task      245 on host ravc2292 reporting.
  Task      246 on host ravc2292 reporting.
  Task      247 on host ravc2292 reporting.
  Task      248 on host ravc2292 reporting.
  Task      249 on host ravc2292 reporting.
  Task      250 on host ravc2292 reporting.
  Task      251 on host ravc2292 reporting.
  Task      252 on host ravc2292 reporting.
  Task      253 on host ravc2292 reporting.
  Task      254 on host ravc2292 reporting.
  Task      255 on host ravc2292 reporting.
  Task      256 on host ravc2292 reporting.
  Task      257 on host ravc2292 reporting.
  Task      258 on host ravc2292 reporting.
  Task      259 on host ravc2292 reporting.
  Task      260 on host ravc2292 reporting.
  Task      261 on host ravc2292 reporting.
  Task      262 on host ravc2292 reporting.
  Task      263 on host ravc2292 reporting.
  Task      264 on host ravc2292 reporting.
  Task      265 on host ravc2292 reporting.
  Task      266 on host ravc2292 reporting.
  Task      267 on host ravc2292 reporting.
  Task      268 on host ravc2292 reporting.
  Task      269 on host ravc2292 reporting.
  Task      270 on host ravc2292 reporting.
  Task      271 on host ravc2292 reporting.
  Task      272 on host ravc2292 reporting.
  Task      273 on host ravc2292 reporting.
  Task      274 on host ravc2292 reporting.
  Task      275 on host ravc2292 reporting.
  Task      276 on host ravc2292 reporting.
  Task      277 on host ravc2292 reporting.
  Task      278 on host ravc2292 reporting.
  Task      279 on host ravc2292 reporting.
  Task      280 on host ravc2292 reporting.
  Task      281 on host ravc2292 reporting.
  Task      282 on host ravc2292 reporting.
  Task      283 on host ravc2292 reporting.
  Task      284 on host ravc2292 reporting.
  Task      285 on host ravc2292 reporting.
  Task      286 on host ravc2292 reporting.
  Task      287 on host ravc2292 reporting.
  Task      288 on host ravc2293 reporting.
  Task      289 on host ravc2293 reporting.
  Task      290 on host ravc2293 reporting.
  Task      291 on host ravc2293 reporting.
  Task      292 on host ravc2293 reporting.
  Task      293 on host ravc2293 reporting.
  Task      294 on host ravc2293 reporting.
  Task      295 on host ravc2293 reporting.
  Task      296 on host ravc2293 reporting.
  Task      297 on host ravc2293 reporting.
  Task      298 on host ravc2293 reporting.
  Task      299 on host ravc2293 reporting.
  Task      300 on host ravc2293 reporting.
  Task      301 on host ravc2293 reporting.
  Task      302 on host ravc2293 reporting.
  Task      303 on host ravc2293 reporting.
  Task      304 on host ravc2293 reporting.
  Task      305 on host ravc2293 reporting.
  Task      306 on host ravc2293 reporting.
  Task      307 on host ravc2293 reporting.
  Task      308 on host ravc2293 reporting.
  Task      309 on host ravc2293 reporting.
  Task      310 on host ravc2293 reporting.
  Task      311 on host ravc2293 reporting.
  Task      312 on host ravc2293 reporting.
  Task      313 on host ravc2293 reporting.
  Task      314 on host ravc2293 reporting.
  Task      315 on host ravc2293 reporting.
  Task      316 on host ravc2293 reporting.
  Task      317 on host ravc2293 reporting.
  Task      318 on host ravc2293 reporting.
  Task      319 on host ravc2293 reporting.
  Task      320 on host ravc2293 reporting.
  Task      321 on host ravc2293 reporting.
  Task      322 on host ravc2293 reporting.
  Task      323 on host ravc2293 reporting.
  Task      324 on host ravc2293 reporting.
  Task      325 on host ravc2293 reporting.
  Task      326 on host ravc2293 reporting.
  Task      327 on host ravc2293 reporting.
  Task      328 on host ravc2293 reporting.
  Task      329 on host ravc2293 reporting.
  Task      330 on host ravc2293 reporting.
  Task      331 on host ravc2293 reporting.
  Task      332 on host ravc2293 reporting.
  Task      333 on host ravc2293 reporting.
  Task      334 on host ravc2293 reporting.
  Task      335 on host ravc2293 reporting.
  Task      336 on host ravc2293 reporting.
  Task      337 on host ravc2293 reporting.
  Task      338 on host ravc2293 reporting.
  Task      339 on host ravc2293 reporting.
  Task      340 on host ravc2293 reporting.
  Task      341 on host ravc2293 reporting.
  Task      342 on host ravc2293 reporting.
  Task      343 on host ravc2293 reporting.
  Task      344 on host ravc2293 reporting.
  Task      345 on host ravc2293 reporting.
  Task      346 on host ravc2293 reporting.
  Task      347 on host ravc2293 reporting.
  Task      348 on host ravc2293 reporting.
  Task      349 on host ravc2293 reporting.
  Task      350 on host ravc2293 reporting.
  Task      351 on host ravc2293 reporting.
  Task      352 on host ravc2293 reporting.
  Task      353 on host ravc2293 reporting.
  Task      354 on host ravc2293 reporting.
  Task      355 on host ravc2293 reporting.
  Task      356 on host ravc2293 reporting.
  Task      357 on host ravc2293 reporting.
  Task      358 on host ravc2293 reporting.
  Task      359 on host ravc2293 reporting.
  Task      360 on host ravc2294 reporting.
  Task      361 on host ravc2294 reporting.
  Task      362 on host ravc2294 reporting.
  Task      363 on host ravc2294 reporting.
  Task      364 on host ravc2294 reporting.
  Task      365 on host ravc2294 reporting.
  Task      366 on host ravc2294 reporting.
  Task      367 on host ravc2294 reporting.
  Task      368 on host ravc2294 reporting.
  Task      369 on host ravc2294 reporting.
  Task      370 on host ravc2294 reporting.
  Task      371 on host ravc2294 reporting.
  Task      372 on host ravc2294 reporting.
  Task      373 on host ravc2294 reporting.
  Task      374 on host ravc2294 reporting.
  Task      375 on host ravc2294 reporting.
  Task      376 on host ravc2294 reporting.
  Task      377 on host ravc2294 reporting.
  Task      378 on host ravc2294 reporting.
  Task      379 on host ravc2294 reporting.
  Task      380 on host ravc2294 reporting.
  Task      381 on host ravc2294 reporting.
  Task      382 on host ravc2294 reporting.
  Task      383 on host ravc2294 reporting.
  Task      384 on host ravc2294 reporting.
  Task      385 on host ravc2294 reporting.
  Task      386 on host ravc2294 reporting.
  Task      387 on host ravc2294 reporting.
  Task      388 on host ravc2294 reporting.
  Task      389 on host ravc2294 reporting.
  Task      390 on host ravc2294 reporting.
  Task      391 on host ravc2294 reporting.
  Task      392 on host ravc2294 reporting.
  Task      393 on host ravc2294 reporting.
  Task      394 on host ravc2294 reporting.
  Task      395 on host ravc2294 reporting.
  Task      396 on host ravc2294 reporting.
  Task      397 on host ravc2294 reporting.
  Task      398 on host ravc2294 reporting.
  Task      399 on host ravc2294 reporting.
  Task      400 on host ravc2294 reporting.
  Task      401 on host ravc2294 reporting.
  Task      402 on host ravc2294 reporting.
  Task      403 on host ravc2294 reporting.
  Task      404 on host ravc2294 reporting.
  Task      405 on host ravc2294 reporting.
  Task      406 on host ravc2294 reporting.
  Task      407 on host ravc2294 reporting.
  Task      408 on host ravc2294 reporting.
  Task      409 on host ravc2294 reporting.
  Task      410 on host ravc2294 reporting.
  Task      411 on host ravc2294 reporting.
  Task      412 on host ravc2294 reporting.
  Task      413 on host ravc2294 reporting.
  Task      414 on host ravc2294 reporting.
  Task      415 on host ravc2294 reporting.
  Task      416 on host ravc2294 reporting.
  Task      417 on host ravc2294 reporting.
  Task      418 on host ravc2294 reporting.
  Task      419 on host ravc2294 reporting.
  Task      420 on host ravc2294 reporting.
  Task      421 on host ravc2294 reporting.
  Task      422 on host ravc2294 reporting.
  Task      423 on host ravc2294 reporting.
  Task      424 on host ravc2294 reporting.
  Task      425 on host ravc2294 reporting.
  Task      426 on host ravc2294 reporting.
  Task      427 on host ravc2294 reporting.
  Task      428 on host ravc2294 reporting.
  Task      429 on host ravc2294 reporting.
  Task      430 on host ravc2294 reporting.
  Task      431 on host ravc2294 reporting.
  Task      432 on host ravc2295 reporting.
  Task      433 on host ravc2295 reporting.
  Task      434 on host ravc2295 reporting.
  Task      435 on host ravc2295 reporting.
  Task      436 on host ravc2295 reporting.
  Task      437 on host ravc2295 reporting.
  Task      438 on host ravc2295 reporting.
  Task      439 on host ravc2295 reporting.
  Task      440 on host ravc2295 reporting.
  Task      441 on host ravc2295 reporting.
  Task      442 on host ravc2295 reporting.
  Task      443 on host ravc2295 reporting.
  Task      444 on host ravc2295 reporting.
  Task      445 on host ravc2295 reporting.
  Task      446 on host ravc2295 reporting.
  Task      447 on host ravc2295 reporting.
  Task      448 on host ravc2295 reporting.
  Task      449 on host ravc2295 reporting.
  Task      450 on host ravc2295 reporting.
  Task      451 on host ravc2295 reporting.
  Task      452 on host ravc2295 reporting.
  Task      453 on host ravc2295 reporting.
  Task      454 on host ravc2295 reporting.
  Task      455 on host ravc2295 reporting.
  Task      456 on host ravc2295 reporting.
  Task      457 on host ravc2295 reporting.
  Task      458 on host ravc2295 reporting.
  Task      459 on host ravc2295 reporting.
  Task      460 on host ravc2295 reporting.
  Task      461 on host ravc2295 reporting.
  Task      462 on host ravc2295 reporting.
  Task      463 on host ravc2295 reporting.
  Task      464 on host ravc2295 reporting.
  Task      465 on host ravc2295 reporting.
  Task      466 on host ravc2295 reporting.
  Task      467 on host ravc2295 reporting.
  Task      468 on host ravc2295 reporting.
  Task      469 on host ravc2295 reporting.
  Task      470 on host ravc2295 reporting.
  Task      471 on host ravc2295 reporting.
  Task      472 on host ravc2295 reporting.
  Task      473 on host ravc2295 reporting.
  Task      474 on host ravc2295 reporting.
  Task      475 on host ravc2295 reporting.
  Task      476 on host ravc2295 reporting.
  Task      477 on host ravc2295 reporting.
  Task      478 on host ravc2295 reporting.
  Task      479 on host ravc2295 reporting.
  Task      480 on host ravc2295 reporting.
  Task      481 on host ravc2295 reporting.
  Task      482 on host ravc2295 reporting.
  Task      483 on host ravc2295 reporting.
  Task      484 on host ravc2295 reporting.
  Task      485 on host ravc2295 reporting.
  Task      486 on host ravc2295 reporting.
  Task      487 on host ravc2295 reporting.
  Task      488 on host ravc2295 reporting.
  Task      489 on host ravc2295 reporting.
  Task      490 on host ravc2295 reporting.
  Task      491 on host ravc2295 reporting.
  Task      492 on host ravc2295 reporting.
  Task      493 on host ravc2295 reporting.
  Task      494 on host ravc2295 reporting.
  Task      495 on host ravc2295 reporting.
  Task      496 on host ravc2295 reporting.
  Task      497 on host ravc2295 reporting.
  Task      498 on host ravc2295 reporting.
  Task      499 on host ravc2295 reporting.
  Task      500 on host ravc2295 reporting.
  Task      501 on host ravc2295 reporting.
  Task      502 on host ravc2295 reporting.
  Task      503 on host ravc2295 reporting.
  Task      504 on host ravc2297 reporting.
  Task      505 on host ravc2297 reporting.
  Task      506 on host ravc2297 reporting.
  Task      507 on host ravc2297 reporting.
  Task      508 on host ravc2297 reporting.
  Task      509 on host ravc2297 reporting.
  Task      510 on host ravc2297 reporting.
  Task      511 on host ravc2297 reporting.
  Task      512 on host ravc2297 reporting.
  Task      513 on host ravc2297 reporting.
  Task      514 on host ravc2297 reporting.
  Task      515 on host ravc2297 reporting.
  Task      516 on host ravc2297 reporting.
  Task      517 on host ravc2297 reporting.
  Task      518 on host ravc2297 reporting.
  Task      519 on host ravc2297 reporting.
  Task      520 on host ravc2297 reporting.
  Task      521 on host ravc2297 reporting.
  Task      522 on host ravc2297 reporting.
  Task      523 on host ravc2297 reporting.
  Task      524 on host ravc2297 reporting.
  Task      525 on host ravc2297 reporting.
  Task      526 on host ravc2297 reporting.
  Task      527 on host ravc2297 reporting.
  Task      528 on host ravc2297 reporting.
  Task      529 on host ravc2297 reporting.
  Task      530 on host ravc2297 reporting.
  Task      531 on host ravc2297 reporting.
  Task      532 on host ravc2297 reporting.
  Task      533 on host ravc2297 reporting.
  Task      534 on host ravc2297 reporting.
  Task      535 on host ravc2297 reporting.
  Task      536 on host ravc2297 reporting.
  Task      537 on host ravc2297 reporting.
  Task      538 on host ravc2297 reporting.
  Task      539 on host ravc2297 reporting.
  Task      540 on host ravc2297 reporting.
  Task      541 on host ravc2297 reporting.
  Task      542 on host ravc2297 reporting.
  Task      543 on host ravc2297 reporting.
  Task      544 on host ravc2297 reporting.
  Task      545 on host ravc2297 reporting.
  Task      546 on host ravc2297 reporting.
  Task      547 on host ravc2297 reporting.
  Task      548 on host ravc2297 reporting.
  Task      549 on host ravc2297 reporting.
  Task      550 on host ravc2297 reporting.
  Task      551 on host ravc2297 reporting.
  Task      552 on host ravc2297 reporting.
  Task      553 on host ravc2297 reporting.
  Task      554 on host ravc2297 reporting.
  Task      555 on host ravc2297 reporting.
  Task      556 on host ravc2297 reporting.
  Task      557 on host ravc2297 reporting.
  Task      558 on host ravc2297 reporting.
  Task      559 on host ravc2297 reporting.
  Task      560 on host ravc2297 reporting.
  Task      561 on host ravc2297 reporting.
  Task      562 on host ravc2297 reporting.
  Task      563 on host ravc2297 reporting.
  Task      564 on host ravc2297 reporting.
  Task      565 on host ravc2297 reporting.
  Task      566 on host ravc2297 reporting.
  Task      567 on host ravc2297 reporting.
  Task      568 on host ravc2297 reporting.
  Task      569 on host ravc2297 reporting.
  Task      570 on host ravc2297 reporting.
  Task      571 on host ravc2297 reporting.
  Task      572 on host ravc2297 reporting.
  Task      573 on host ravc2297 reporting.
  Task      574 on host ravc2297 reporting.
  Task      575 on host ravc2297 reporting.

  Obtaining array dimensions for all initial allocations:
  
  -----------------------------------------------------------------------
  Parsing control.in (first pass over file, find array dimensions only).
  The contents of control.in will be repeated verbatim below
  unless switched off by setting 'verbatim_writeout .false.' .
  in the first line of control.in .
  -----------------------------------------------------------------------
  
  xc                                 pbe
  relativistic                       atomic_zora scalar
  k_grid                             1 1 1
  spin                               none
  vdw_correction_hirshfeld           .true.
  use_dipole_correction              .true.
  compute_forces                     .true.
  output_level                       MD_light
  sc_accuracy_rho                    1e-07
  output                             dipole
  pos_tip_origin          -0.000030 -1.696604 -4.614000
  pos_sys_origin          0.000000 0.000000 0.000000
  tip_molecule_distance   4.000000
  rel_shift_from_tip      -0.541667 4.875000
  nearfield_derivative    tipA_05_vh_ft_0049_3221meV_x1000.cube
  ################################################################################
  #
  #  FHI-aims code project
  #  VB, Fritz-Haber Institut, 2009
  #
  #  Suggested "light" defaults for Ag atom (to be pasted into control.in file)
  #  Be sure to double-check any results obtained with these settings for post-processing,
  #  e.g., with the "tight" defaults and larger basis sets.
  #
  ################################################################################
    species        Ag
  #     global species definitions
  #     Krystof added
      hirshfeld_param 	122 15.4 2.57
      nucleus             47
      mass                107.8682
  #
      l_hartree           4
  #
      cut_pot             3.5  1.5  1.0
      basis_dep_cutoff    1e-4
  #
      radial_base         62 5.0
      radial_multiplier   1
      angular_grids specified
        division   0.5617   50
        division   0.9788  110
        division   1.2700  194
        division   1.5678  302
  #      division   2.1195  434
  #      division   2.1949  590
  #      division   2.2741  770
  #      division   2.8497 1202
  #      outer_grid  974
        outer_grid  302
  ################################################################################
  #
  #  Definition of "minimal" basis
  #
  ################################################################################
  #     valence basis states
      valence      5  s   1.
      valence      4  p   6.
      valence      4  d  10.
  #     ion occupancy
      ion_occ     5  s   0.
      ion_occ     4  p   6.
      ion_occ     4  d   9.
  ################################################################################
  #
  #  Suggested additional basis functions. For production calculations,
  #  uncomment them one after another (the most important basis functions are
  #  listed first).
  #
  #  Constructed for dimers: 2.1 A, 2.45 A, 3.00 A, 4.00 A
  #
  ################################################################################
  #  "First tier" - max. impr. -144.99  meV, min. impr. -3.42 meV
       ionic 5 p auto
       hydro 4 f 7.6
       hydro 3 s 2.6
  #     hydro 5 g 9.8
       hydro 4 d 8.4
  #  "Second tier" - max. impr. -3.10  meV, min. impr. -0.64 meV
  #     hydro 5 f 16.8
  #     hydro 6 h 13.2
  #     hydro 4 p 5
  #     hydro 4 d 4.3
  #     hydro 5 s 17.2
  #  "Third tier" - max. impr. -0.48  meV, min. impr. -0.12 meV
  #     hydro 4 f 19.2
  #     hydro 5 f 8.4
  #     hydro 6 p 12
  #     hydro 5 g 12.8
  #     hydro 5 d 8.4
  #     hydro 5 s 5.8
  #     hydro 6 h 15.2
  
  
  ################################################################################
  #
  #  FHI-aims code project
  #  VB, Fritz-Haber Institut, 2009
  #
  #  Suggested "light" defaults for Mg atom (to be pasted into control.in file)
  #  Be sure to double-check any results obtained with these settings for post-processing,
  #  e.g., with the "tight" defaults and larger basis sets.
  #
  ################################################################################
    species        Mg
  #     global species definitions
      nucleus             12
      mass                24.3050
  #
      l_hartree           4
  #
      cut_pot             4.0          1.5  1.0
      basis_dep_cutoff    1e-4
  #
      radial_base         40 5.5
      radial_multiplier   1
      angular_grids       specified
        division   0.7029   50
        division   0.9689  110
        division   1.1879  194
        division   1.3129  302
  #      division   1.4867  434
  #      division   1.6018  590
  #      division   1.8611  770
  #      division   1.9576  974
  #      division   2.2261 1202
  #      outer_grid   974
        outer_grid   302
  ################################################################################
  #
  #  Definition of "minimal" basis
  #
  ################################################################################
  #     valence basis states
      valence      3  s   2.
      valence      2  p   6.
  #     ion occupancy
      ion_occ      2  s   2.
      ion_occ      2  p   6.
  ################################################################################
  #
  #  Suggested additional basis functions. For production calculations,
  #  uncomment them one after another (the most important basis functions are
  #  listed first).
  #
  #  Constructed for dimers: 2.125 A, 2.375 A, 2.875 A, 3.375 A, 4.5 A
  #
  ################################################################################
  #  "First tier" - improvements: -230.76 meV to -21.94 meV
       hydro 2 p 1.5
       ionic 3 d auto
       hydro 3 s 2.4
  #  "Second tier" - improvements: -5.43 meV to -1.64 meV
  #     hydro 4 f 4.3
  #     hydro 2 p 3.4
  #     hydro 4 s 11.2
  #     hydro 3 d 6.2
  #  "Third tier" - improvements: -0.92 meV to -0.22 meV
  #     hydro 2 s 0.6
  #     hydro 3 p 4.8
  #     hydro 4 f 7.4
  #     hydro 5 g 6.6
  #     hydro 2 p 1.6
  #     hydro 3 d 1.8
  #  "Fourth tier" - improvements: -0.09 meV to -0.05 meV
  #     hydro 4 p 0.45
  #     hydro 5 g 10.4
  #     hydro 2 s 12.4
  #     hydro 4 d 1.7
  ################################################################################
  #
  #  FHI-aims code project
  #  VB, Fritz-Haber Institut, 2009
  #
  #  Suggested "light" defaults for N atom (to be pasted into control.in file)
  #  Be sure to double-check any results obtained with these settings for post-processing,
  #  e.g., with the "tight" defaults and larger basis sets.
  #
  ################################################################################
    species        N
  #     global species definitions
      nucleus             7
      mass                14.0067
  #
      l_hartree           4
  #
      cut_pot             3.5  1.5  1.0
      basis_dep_cutoff    1e-4
  #
      radial_base         35 5.0
      radial_multiplier   1
      angular_grids       specified
        division   0.2599   50
        division   0.4601  110
        division   0.5885  194
        division   0.6503  302
  #      division   0.6939  434
  #      division   0.7396  590
  #      division   0.7632  770
  #      division   0.8122  974
  #      division   1.1604 1202
  #      outer_grid  974
        outer_grid  302
  ################################################################################
  #
  #  Definition of "minimal" basis
  #
  ################################################################################
  #     valence basis states
      valence      2  s   2.
      valence      2  p   3.
  #     ion occupancy
      ion_occ      2  s   1.
      ion_occ      2  p   2.
  ################################################################################
  #
  #  Suggested additional basis functions. For production calculations,
  #  uncomment them one after another (the most important basis functions are
  #  listed first).
  #
  #  Constructed for dimers: 1.0 A, 1.1 A, 1.5 A, 2.0 A, 3.0 A
  #
  ################################################################################
  #  "First tier" - improvements: -1193.42 meV to -220.60 meV
       hydro 2 p 1.8
       hydro 3 d 6.8
       hydro 3 s 5.8
  #  "Second tier" - improvements: -80.21 meV to -6.86 meV
  #     hydro 4 f 10.8
  #     hydro 3 p 5.8
  #     hydro 1 s 0.8
  #     hydro 5 g 16
  #     hydro 3 d 4.9
  #  "Third tier" - improvements: -4.29 meV to -0.53 meV
  #     hydro 3 s 16
  #     ionic 2 p auto
  #     hydro 3 d 6.6
  #     hydro 4 f 11.6
  #  "Fourth tier" - improvements: -0.75 meV to -0.25 meV
  #     hydro 2 p 4.5
  #     hydro 2 s 2.4
  #     hydro 5 g 14.4
  #     hydro 4 d 14.4
  #     hydro 4 f 16.8
  # Further basis functions - -0.21 meV and below
  #     hydro 3 p 14.8
  #     hydro 3 s 4.4
  #     hydro 3 d 19.6
  #     hydro 5 g 12.8
  ################################################################################
  #
  #  FHI-aims code project
  #  VB, Fritz-Haber Institut, 2009
  #
  #  Suggested "light" defaults for C atom (to be pasted into control.in file)
  #  Be sure to double-check any results obtained with these settings for post-processing,
  #  e.g., with the "tight" defaults and larger basis sets.
  #
  ################################################################################
    species        C
  #     global species definitions
      nucleus             6
      mass                12.0107
  #
      l_hartree           4
  #
      cut_pot             3.5  1.5  1.0
      basis_dep_cutoff    1e-4
  #
      radial_base         34 5.0
      radial_multiplier   1
      angular_grids specified
        division   0.3326   50
        division   0.5710  110
        division   0.7727  194
        division   0.8772  302
  #      division   0.9334  434
  #      division   0.9625  590
  #      division   0.9924  770
  #      division   1.0230  974
  #      division   1.4589 1202
  #     outer_grid  974
       outer_grid 302
  ################################################################################
  #
  #  Definition of "minimal" basis
  #
  ################################################################################
  #     valence basis states
      valence      2  s   2.
      valence      2  p   2.
  #     ion occupancy
      ion_occ      2  s   1.
      ion_occ      2  p   1.
  ################################################################################
  #
  #  Suggested additional basis functions. For production calculations,
  #  uncomment them one after another (the most important basis functions are
  #  listed first).
  #
  #  Constructed for dimers: 1.0 A, 1.25 A, 1.5 A, 2.0 A, 3.0 A
  #
  ################################################################################
  #  "First tier" - improvements: -1214.57 meV to -155.61 meV
       hydro 2 p 1.7
       hydro 3 d 6
       hydro 2 s 4.9
  #  "Second tier" - improvements: -67.75 meV to -5.23 meV
  #     hydro 4 f 9.8
  #     hydro 3 p 5.2
  #     hydro 3 s 4.3
  #     hydro 5 g 14.4
  #     hydro 3 d 6.2
  #  "Third tier" - improvements: -2.43 meV to -0.60 meV
  #     hydro 2 p 5.6
  #     hydro 2 s 1.4
  #     hydro 3 d 4.9
  #     hydro 4 f 11.2
  #  "Fourth tier" - improvements: -0.39 meV to -0.18 meV
  #     hydro 2 p 2.1
  #     hydro 5 g 16.4
  #     hydro 4 d 13.2
  #     hydro 3 s 13.6
  #     hydro 4 f 17.6
  #  Further basis functions - improvements: -0.08 meV and below
  #     hydro 3 s 2
  #     hydro 3 p 6
  #     hydro 4 d 20
  ################################################################################
  #
  #  FHI-aims code project
  #  VB, Fritz-Haber Institut, 2009
  #
  #  Suggested "light" defaults for H atom (to be pasted into control.in file)
  #  Be sure to double-check any results obtained with these settings for post-processing,
  #  e.g., with the "tight" defaults and larger basis sets.
  #
  ################################################################################
    species        H
  #     global species definitions
      nucleus             1
      mass                1.00794
  #
      l_hartree           4
  #
      cut_pot             3.5  1.5  1.0
      basis_dep_cutoff    1e-4
  #
      radial_base         24 5.0
      radial_multiplier   1
      angular_grids       specified
        division   0.2421   50
        division   0.3822  110
        division   0.4799  194
        division   0.5341  302
  #      division   0.5626  434
  #      division   0.5922  590
  #      division   0.6542  770
  #      division   0.6868 1202
  #      outer_grid  770
        outer_grid  302
  ################################################################################
  #
  #  Definition of "minimal" basis
  #
  ################################################################################
  #     valence basis states
      valence      1  s   1.
  #     ion occupancy
      ion_occ      1  s   0.5
  ################################################################################
  #
  #  Suggested additional basis functions. For production calculations,
  #  uncomment them one after another (the most important basis functions are
  #  listed first).
  #
  #  Basis constructed for dimers: 0.5 A, 0.7 A, 1.0 A, 1.5 A, 2.5 A
  #
  ################################################################################
  #  "First tier" - improvements: -1014.90 meV to -62.69 meV
       hydro 2 s 2.1
       hydro 2 p 3.5
  #  "Second tier" - improvements: -12.89 meV to -1.83 meV
  #     hydro 1 s 0.85
  #     hydro 2 p 3.7
  #     hydro 2 s 1.2
  #     hydro 3 d 7
  #  "Third tier" - improvements: -0.25 meV to -0.12 meV
  #     hydro 4 f 11.2
  #     hydro 3 p 4.8
  #     hydro 4 d 9
  #     hydro 3 s 3.2
  
  -----------------------------------------------------------------------
  Completed first pass over input file control.in .
  -----------------------------------------------------------------------
  
  
  -----------------------------------------------------------------------
  Parsing geometry.in (first pass over file, find array dimensions only).
  The contents of geometry.in will be repeated verbatim below
  unless switched off by setting 'verbatim_writeout .false.' .
  in the first line of geometry.in .
  -----------------------------------------------------------------------
  
  lattice_vector 23.5155431200000002 0.0000000000000000 0.0000000000000000
  lattice_vector 0.0000000000000000 23.5155431200000002 0.0000000000000000
  lattice_vector 0.0000000000000000 0.0000000000000000 106.2355000000000018
  atom -7.3486081900000002 -10.2881751200000000 -9.5825768599999996 Ag
  atom -4.4091652999999997 -10.2881751200000000 -9.5825768599999996 Ag
  atom -1.4697224100000001 -10.2881751200000000 -9.5825768599999996 Ag
  atom 1.4697204799999999 -10.2881751200000000 -9.5825768599999996 Ag
  atom 4.4091633699999999 -10.2881751200000000 -9.5825768599999996 Ag
  atom 7.3486062599999995 -10.2881751200000000 -9.5825768599999996 Ag
  atom 10.2880491500000009 -10.2881751200000000 -9.5825768599999996 Ag
  atom 13.2274920400000013 -10.2881751200000000 -9.5825768599999996 Ag
  atom -7.3486081900000002 -7.3487322300000004 -9.5825768599999996 Ag
  atom -4.4091652999999997 -7.3487322300000004 -9.5825768599999996 Ag
  atom -1.4697224100000001 -7.3487322300000004 -9.5825768599999996 Ag
  atom 1.4697204799999999 -7.3487322300000004 -9.5825768599999996 Ag
  atom 4.4091633699999999 -7.3487322300000004 -9.5825768599999996 Ag
  atom 7.3486062599999995 -7.3487322300000004 -9.5825768599999996 Ag
  atom 10.2880491500000009 -7.3487322300000004 -9.5825768599999996 Ag
  atom 13.2274920400000013 -7.3487322300000004 -9.5825768599999996 Ag
  atom -7.3486081900000002 -4.4092893399999999 -9.5825768599999996 Ag
  atom -4.4091652999999997 -4.4092893399999999 -9.5825768599999996 Ag
  atom -1.4697224100000001 -4.4092893399999999 -9.5825768599999996 Ag
  atom 1.4697204799999999 -4.4092893399999999 -9.5825768599999996 Ag
  atom 4.4091633699999999 -4.4092893399999999 -9.5825768599999996 Ag
  atom 7.3486062599999995 -4.4092893399999999 -9.5825768599999996 Ag
  atom 10.2880491500000009 -4.4092893399999999 -9.5825768599999996 Ag
  atom 13.2274920400000013 -4.4092893399999999 -9.5825768599999996 Ag
  atom -7.3486081900000002 -1.4698464499999999 -9.5825768599999996 Ag
  atom -4.4091652999999997 -1.4698464499999999 -9.5825768599999996 Ag
  atom -1.4697224100000001 -1.4698464499999999 -9.5825768599999996 Ag
  atom 1.4697204799999999 -1.4698464499999999 -9.5825768599999996 Ag
  atom 4.4091633699999999 -1.4698464499999999 -9.5825768599999996 Ag
  atom 7.3486062599999995 -1.4698464499999999 -9.5825768599999996 Ag
  atom 10.2880491500000009 -1.4698464499999999 -9.5825768599999996 Ag
  atom 13.2274920400000013 -1.4698464499999999 -9.5825768599999996 Ag
  atom -7.3486081900000002 1.4695964399999999 -9.5825768599999996 Ag
  atom -4.4091652999999997 1.4695964399999999 -9.5825768599999996 Ag
  atom -1.4697224100000001 1.4695964399999999 -9.5825768599999996 Ag
  atom 1.4697204799999999 1.4695964399999999 -9.5825768599999996 Ag
  atom 4.4091633699999999 1.4695964399999999 -9.5825768599999996 Ag
  atom 7.3486062599999995 1.4695964399999999 -9.5825768599999996 Ag
  atom 10.2880491500000009 1.4695964399999999 -9.5825768599999996 Ag
  atom 13.2274920400000013 1.4695964399999999 -9.5825768599999996 Ag
  atom -7.3486081900000002 4.4090393299999997 -9.5825768599999996 Ag
  atom -4.4091652999999997 4.4090393299999997 -9.5825768599999996 Ag
  atom -1.4697224100000001 4.4090393299999997 -9.5825768599999996 Ag
  atom 1.4697204799999999 4.4090393299999997 -9.5825768599999996 Ag
  atom 4.4091633699999999 4.4090393299999997 -9.5825768599999996 Ag
  atom 7.3486062599999995 4.4090393299999997 -9.5825768599999996 Ag
  atom 10.2880491500000009 4.4090393299999997 -9.5825768599999996 Ag
  atom 13.2274920400000013 4.4090393299999997 -9.5825768599999996 Ag
  atom -7.3486081900000002 7.3484822200000002 -9.5825768599999996 Ag
  atom -4.4091652999999997 7.3484822200000002 -9.5825768599999996 Ag
  atom -1.4697224100000001 7.3484822200000002 -9.5825768599999996 Ag
  atom 1.4697204799999999 7.3484822200000002 -9.5825768599999996 Ag
  atom 4.4091633699999999 7.3484822200000002 -9.5825768599999996 Ag
  atom 7.3486062599999995 7.3484822200000002 -9.5825768599999996 Ag
  atom 10.2880491500000009 7.3484822200000002 -9.5825768599999996 Ag
  atom 13.2274920400000013 7.3484822200000002 -9.5825768599999996 Ag
  atom -7.3486081900000002 10.2879251100000015 -9.5825768599999996 Ag
  atom -4.4091652999999997 10.2879251100000015 -9.5825768599999996 Ag
  atom -1.4697224100000001 10.2879251100000015 -9.5825768599999996 Ag
  atom 1.4697204799999999 10.2879251100000015 -9.5825768599999996 Ag
  atom 4.4091633699999999 10.2879251100000015 -9.5825768599999996 Ag
  atom 7.3486062599999995 10.2879251100000015 -9.5825768599999996 Ag
  atom 10.2880491500000009 10.2879251100000015 -9.5825768599999996 Ag
  atom 13.2274920400000013 10.2879251100000015 -9.5825768599999996 Ag
  atom -8.8183296299999991 -11.7578965599999989 -7.5040771800000003 Ag
  atom -5.8788867400000004 -11.7578965599999989 -7.5040771800000003 Ag
  atom -2.9394438500000000 -11.7578965599999989 -7.5040771800000003 Ag
  atom -0.0000009600000000 -11.7578965599999989 -7.5040771800000003 Ag
  atom 2.9394419300000001 -11.7578965599999989 -7.5040771800000003 Ag
  atom 5.8788848199999997 -11.7578965599999989 -7.5040771800000003 Ag
  atom 8.8183277100000002 -11.7578965599999989 -7.5040771800000003 Ag
  atom 11.7577706000000006 -11.7578965599999989 -7.5040771800000003 Ag
  atom -8.8183296299999991 -8.8184536699999985 -7.5040771800000003 Ag
  atom -5.8788867400000004 -8.8184536699999985 -7.5040771800000003 Ag
  atom -2.9394438500000000 -8.8184536699999985 -7.5040771800000003 Ag
  atom -0.0000009600000000 -8.8184536699999985 -7.5040771800000003 Ag
  atom 2.9394419300000001 -8.8184536699999985 -7.5040771800000003 Ag
  atom 5.8788848199999997 -8.8184536699999985 -7.5040771800000003 Ag
  atom 8.8183277100000002 -8.8184536699999985 -7.5040771800000003 Ag
  atom 11.7577706000000006 -8.8184536699999985 -7.5040771800000003 Ag
  atom -8.8183296299999991 -5.8790107800000007 -7.5040771800000003 Ag
  atom -5.8788867400000004 -5.8790107800000007 -7.5040771800000003 Ag
  atom -2.9394438500000000 -5.8790107800000007 -7.5040771800000003 Ag
  atom -0.0000009600000000 -5.8790107800000007 -7.5040771800000003 Ag
  atom 2.9394419300000001 -5.8790107800000007 -7.5040771800000003 Ag
  atom 5.8788848199999997 -5.8790107800000007 -7.5040771800000003 Ag
  atom 8.8183277100000002 -5.8790107800000007 -7.5040771800000003 Ag
  atom 11.7577706000000006 -5.8790107800000007 -7.5040771800000003 Ag
  atom -8.8183296299999991 -2.9395678899999997 -7.5040771800000003 Ag
  atom -5.8788867400000004 -2.9395678899999997 -7.5040771800000003 Ag
  atom -2.9394438500000000 -2.9395678899999997 -7.5040771800000003 Ag
  atom -0.0000009600000000 -2.9395678899999997 -7.5040771800000003 Ag
  atom 2.9394419300000001 -2.9395678899999997 -7.5040771800000003 Ag
  atom 5.8788848199999997 -2.9395678899999997 -7.5040771800000003 Ag
  atom 8.8183277100000002 -2.9395678899999997 -7.5040771800000003 Ag
  atom 11.7577706000000006 -2.9395678899999997 -7.5040771800000003 Ag
  atom -8.8183296299999991 -0.0001250000000000 -7.5040771800000003 Ag
  atom -5.8788867400000004 -0.0001250000000000 -7.5040771800000003 Ag
  atom -2.9394438500000000 -0.0001250000000000 -7.5040771800000003 Ag
  atom -0.0000009600000000 -0.0001250000000000 -7.5040771800000003 Ag
  atom 2.9394419300000001 -0.0001250000000000 -7.5040771800000003 Ag
  atom 5.8788848199999997 -0.0001250000000000 -7.5040771800000003 Ag
  atom 8.8183277100000002 -0.0001250000000000 -7.5040771800000003 Ag
  atom 11.7577706000000006 -0.0001250000000000 -7.5040771800000003 Ag
  atom -8.8183296299999991 2.9393178900000003 -7.5040771800000003 Ag
  atom -5.8788867400000004 2.9393178900000003 -7.5040771800000003 Ag
  atom -2.9394438500000000 2.9393178900000003 -7.5040771800000003 Ag
  atom -0.0000009600000000 2.9393178900000003 -7.5040771800000003 Ag
  atom 2.9394419300000001 2.9393178900000003 -7.5040771800000003 Ag
  atom 5.8788848199999997 2.9393178900000003 -7.5040771800000003 Ag
  atom 8.8183277100000002 2.9393178900000003 -7.5040771800000003 Ag
  atom 11.7577706000000006 2.9393178900000003 -7.5040771800000003 Ag
  atom -8.8183296299999991 5.8787607799999995 -7.5040771800000003 Ag
  atom -5.8788867400000004 5.8787607799999995 -7.5040771800000003 Ag
  atom -2.9394438500000000 5.8787607799999995 -7.5040771800000003 Ag
  atom -0.0000009600000000 5.8787607799999995 -7.5040771800000003 Ag
  atom 2.9394419300000001 5.8787607799999995 -7.5040771800000003 Ag
  atom 5.8788848199999997 5.8787607799999995 -7.5040771800000003 Ag
  atom 8.8183277100000002 5.8787607799999995 -7.5040771800000003 Ag
  atom 11.7577706000000006 5.8787607799999995 -7.5040771800000003 Ag
  atom -8.8183296299999991 8.8182036700000008 -7.5040771800000003 Ag
  atom -5.8788867400000004 8.8182036700000008 -7.5040771800000003 Ag
  atom -2.9394438500000000 8.8182036700000008 -7.5040771800000003 Ag
  atom -0.0000009600000000 8.8182036700000008 -7.5040771800000003 Ag
  atom 2.9394419300000001 8.8182036700000008 -7.5040771800000003 Ag
  atom 5.8788848199999997 8.8182036700000008 -7.5040771800000003 Ag
  atom 8.8183277100000002 8.8182036700000008 -7.5040771800000003 Ag
  atom 11.7577706000000006 8.8182036700000008 -7.5040771800000003 Ag
  atom -7.3493445600000005 -10.2871973199999989 -5.4839157700000003 Ag
  atom -4.4084866800000002 -10.2877827300000000 -5.4838330900000001 Ag
  atom -1.4685287200000001 -10.2866789999999995 -5.4831253200000001 Ag
  atom 1.4685262699999999 -10.2866787500000001 -5.4831257600000001 Ag
  atom 4.4084839100000002 -10.2877824300000000 -5.4838333600000002 Ag
  atom 7.3493419600000003 -10.2871977000000001 -5.4839158800000005 Ag
  atom 10.2881786300000009 -10.2883053399999991 -5.4836249200000005 Ag
  atom 13.2273611500000001 -10.2883049799999995 -5.4836248000000003 Ag
  atom -7.3484252300000001 -7.3485484599999999 -5.4836600400000002 Ag
  atom -4.4102176699999998 -7.3489058200000006 -5.4863403600000007 Ag
  atom -1.4675659500000000 -7.3450809900000005 -5.4814144900000006 Ag
  atom 1.4675637799999999 -7.3450811700000003 -5.4814144499999999 Ag
  atom 4.4102145400000001 -7.3489049000000000 -5.4863402600000004 Ag
  atom 7.3484208500000001 -7.3485488600000002 -5.4836604600000003 Ag
  atom 10.2870671000000016 -7.3494639700000004 -5.4839129000000000 Ag
  atom 13.2284717400000016 -7.3494625800000000 -5.4839123200000000 Ag
  atom -7.3487762500000002 -4.4103426400000005 -5.4863370300000005 Ag
  atom -4.4043294900000003 -4.4044514299999999 -5.4800926500000005 Ag
  atom -1.4715433800000000 -4.4106735700000002 -5.4802305499999999 Ag
  atom 1.4715406499999999 -4.4106733900000004 -5.4802305700000007 Ag
  atom 4.4043267500000001 -4.4044509200000004 -5.4800926100000007 Ag
  atom 7.3487746999999999 -4.4103426600000004 -5.4863366800000000 Ag
  atom 10.2876561500000001 -4.4086120700000002 -5.4838338700000007 Ag
  atom 13.2278826300000016 -4.4086118399999998 -5.4838323300000003 Ag
  atom -7.3449615100000001 -1.4676901700000000 -5.4814146099999999 Ag
  atom -4.4105523199999999 -1.4716641100000001 -5.4802270399999999 Ag
  atom -1.4862345600000000 -1.4863605000000000 -5.5082105700000001 Ag
  atom 1.4862323199999998 -1.4863608800000001 -5.5082107000000002 Ag
  atom 4.4105499999999997 -1.4716641100000001 -5.4802273600000007 Ag
  atom 7.3449591199999995 -1.4676899999999999 -5.4814145999999999 Ag
  atom 10.2865580600000008 -1.4686538899999999 -5.4831285800000007 Ag
  atom 13.2289819200000007 -1.4686539400000000 -5.4831281500000006 Ag
  atom -7.3449618299999999 1.4674397900000000 -5.4814147700000007 Ag
  atom -4.4105501199999999 1.4714139799999999 -5.4802253700000003 Ag
  atom -1.4862361700000000 1.4861043100000000 -5.5082087200000007 Ag
  atom 1.4862340599999999 1.4861043199999999 -5.5082086000000006 Ag
  atom 4.4105480200000002 1.4714143900000001 -5.4802250600000004 Ag
  atom 7.3449587300000001 1.4674396700000001 -5.4814150000000001 Ag
  atom 10.2865578400000004 1.4684037000000001 -5.4831291000000002 Ag
  atom 13.2289822500000014 1.4684038500000001 -5.4831285100000002 Ag
  atom -7.3487768899999999 4.4100921299999998 -5.4863374900000004 Ag
  atom -4.4043268800000002 4.4041986099999999 -5.4800921499999999 Ag
  atom -1.4715403000000000 4.4104168599999998 -5.4802255799999999 Ag
  atom 1.4715383700000000 4.4104172600000000 -5.4802253500000004 Ag
  atom 4.4043243900000002 4.4041991800000000 -5.4800916700000002 Ag
  atom 7.3487730700000000 4.4100922200000001 -5.4863380500000005 Ag
  atom 10.2876564800000008 4.4083611299999994 -5.4838340600000004 Ag
  atom 13.2278833000000002 4.4083615199999997 -5.4838334800000004 Ag
  atom -7.3484233300000001 7.3482975399999999 -5.4836603000000004 Ag
  atom -4.4102169900000003 7.3486530999999999 -5.4863406800000005 Ag
  atom -1.4675640600000002 7.3448252499999995 -5.4814120700000002 Ag
  atom 1.4675620000000000 7.3448260300000001 -5.4814118199999999 Ag
  atom 4.4102145200000002 7.3486542899999998 -5.4863408700000003 Ag
  atom 7.3484222700000004 7.3482973399999993 -5.4836607200000005 Ag
  atom 10.2870675700000014 7.3492122499999999 -5.4839129800000004 Ag
  atom 13.2284717900000004 7.3492137299999998 -5.4839121799999999 Ag
  atom -7.3493437300000002 10.2869458400000013 -5.4839162300000002 Ag
  atom -4.4084858599999999 10.2875302400000006 -5.4838334200000007 Ag
  atom -1.4685284000000001 10.2864245400000005 -5.4831253700000007 Ag
  atom 1.4685259300000000 10.2864247600000009 -5.4831257000000004 Ag
  atom 4.4084832699999996 10.2875305800000003 -5.4838337300000006 Ag
  atom 7.3493421999999997 10.2869457100000012 -5.4839164199999999 Ag
  atom 10.2881780600000017 10.2880534099999998 -5.4836260399999999 Ag
  atom 13.2273615900000010 10.2880537300000015 -5.4836251700000007 Ag
  atom -8.8184711099999991 -11.7578992099999997 -3.4999998600000000 Ag
  atom -5.8801765200000000 -11.7578983899999994 -3.5028981099999998 Ag
  atom -2.9386281500000000 -11.7578981899999988 -3.5016912699999998 Ag
  atom -0.0000014400000000 -11.7579009899999996 -3.4992056099999997 Ag
  atom 2.9386246300000001 -11.7578981200000001 -3.5016914699999999 Ag
  atom 5.8801720499999997 -11.7579000399999991 -3.5028984899999998 Ag
  atom 8.8184666400000005 -11.7578998899999991 -3.4999993699999998 Ag
  atom 11.7577682400000008 -11.7578989699999994 -3.4973204000000000 Ag
  atom -8.8183402599999994 -8.8184608499999992 -3.4982012399999998 Ag
  atom -5.8779940200000000 -8.8153719499999994 -3.4995285899999997 Ag
  atom -2.9374680400000002 -8.8151722499999998 -3.5002996600000000 Ag
  atom -0.0000011800000000 -8.8119834299999997 -3.4974594399999996 Ag
  atom 2.9374652599999997 -8.8151715699999986 -3.5002995299999999 Ag
  atom 5.8779902000000002 -8.8153721599999990 -3.4995282899999998 Ag
  atom 8.8183363200000002 -8.8184612699999985 -3.4982011300000000 Ag
  atom 11.7577692000000003 -8.8185959299999990 -3.4999995799999999 Ag
  atom -8.8152426699999999 -5.8781111300000006 -3.4995244699999999 Ag
  atom -5.8759585799999998 -5.8760896699999998 -3.4987430300000000 Ag
  atom -2.9419044900000002 -5.8809750300000001 -3.5000100299999999 Ag
  atom -0.0000012100000000 -5.8687628300000005 -3.4908087100000000 Ag
  atom 2.9419013800000000 -5.8809736800000003 -3.5000097699999997 Ag
  atom 5.8759552399999997 -5.8760891000000006 -3.4987422900000000 Ag
  atom 8.8152378500000008 -5.8781113000000005 -3.4995249099999999 Ag
  atom 11.7577678400000014 -5.8803028099999999 -3.5028940899999998 Ag
  atom -8.8150569899999986 -2.9375920199999999 -3.5003005899999997 Ag
  atom -5.8808594300000001 -2.9420299399999998 -3.5000087799999999 Ag
  atom -2.9427953700000002 -2.9429150699999997 -3.4742892899999998 Ag
  atom -0.0000014000000000 -2.9124305699999997 -3.5372072200000000 Ag
  atom 2.9427926799999997 -2.9429139199999996 -3.4742893099999996 Ag
  atom 5.8808560099999996 -2.9420288499999998 -3.5000085999999997 Ag
  atom 8.8150524400000005 -2.9375923399999997 -3.5003001700000000 Ag
  atom 11.7577681400000014 -2.9387530699999997 -3.5016841400000001 Ag
  atom -8.8118706099999997 -0.0001243700000000 -3.4974638099999997 Ag
  atom -5.8686475400000004 -0.0001254900000000 -3.4908028000000000 Ag
  atom -2.9123003900000000 -0.0001300500000000 -3.5372048999999999 Ag
  atom -0.0000010600000000 -0.0001360600000000 -3.5960677899999998 Ag
  atom 2.9122977199999998 -0.0001301200000000 -3.5372051199999999 Ag
  atom 5.8686449999999999 -0.0001251600000000 -3.4908026899999998 Ag
  atom 8.8118676600000008 -0.0001242200000000 -3.4974632899999998 Ag
  atom 11.7577681200000015 -0.0001248500000000 -3.4992005799999997 Ag
  atom -8.8150562999999984 2.9373421200000003 -3.5003005699999998 Ag
  atom -5.8808605199999997 2.9417790800000003 -3.5000104699999999 Ag
  atom -2.9427950599999999 2.9426623400000000 -3.4742810199999998 Ag
  atom -0.0000009100000000 2.9121515500000004 -3.5372047799999997 Ag
  atom 2.9427935700000001 2.9426623200000002 -3.4742807899999999 Ag
  atom 5.8808587299999999 2.9417792600000001 -3.5000100900000000 Ag
  atom 8.8150529400000011 2.9373423400000003 -3.5003008699999998 Ag
  atom 11.7577675600000013 2.9385021400000002 -3.5016843600000001 Ag
  atom -8.8152416999999996 5.8778601799999999 -3.4995248999999999 Ag
  atom -5.8759574399999996 5.8758380599999995 -3.4987428399999998 Ag
  atom -2.9419051800000000 5.8807213500000000 -3.5000088599999999 Ag
  atom -0.0000009600000000 5.8684984899999995 -3.4907988500000000 Ag
  atom 2.9419030199999998 5.8807228299999998 -3.5000090500000001 Ag
  atom 5.8759547999999997 5.8758384999999995 -3.4987425200000000 Ag
  atom 8.8152383300000015 5.8778598600000000 -3.4995248399999999 Ag
  atom 11.7577692800000015 5.8800507999999994 -3.5028941199999997 Ag
  atom -8.8183402399999995 8.8182101800000012 -3.4982012199999999 Ag
  atom -5.8779925300000002 8.8151195200000014 -3.4995285899999997 Ag
  atom -2.9374671000000001 8.8149175700000004 -3.5003002400000001 Ag
  atom -0.0000012200000000 8.8117251799999998 -3.4974583600000000 Ag
  atom 2.9374646900000001 8.8149180400000002 -3.5002998299999999 Ag
  atom 5.8779900300000003 8.8151198700000002 -3.4995284399999997 Ag
  atom 8.8183354000000005 8.8182092100000009 -3.4982012999999998 Ag
  atom 11.7577677800000000 8.8183426699999998 -3.5000000000000000 Ag
  atom -0.0000000000004543 -0.0000000000010638 0.0000000000059488 Mg
  atom -0.0000013166896553 -2.0705718799829200 0.1583716200035606 N
  atom 2.0705729099978831 -0.0000015164674210 0.1583581599901421 N
  atom 0.0000012777964653 2.0705738600735919 0.1583443899844446 N
  atom -2.0705728899833353 0.0000008965008756 0.1583583500095715 N
  atom 1.1070702875655341 -2.8898689920706913 0.1911100885181176 C
  atom -1.1070665624944767 -2.8898777778213462 0.1911101914881113 C
  atom 1.1070671807795849 2.8898794011457372 0.1910897615341462 C
  atom -1.1070709889540167 2.8898706291157921 0.1910897184188471 C
  atom 2.8898782330487713 -1.1070676435755185 0.1911059269350564 C
  atom 2.8898702372023406 1.1070697563243994 0.1910981530715104 C
  atom -2.8898697767579584 -1.1070712165132137 0.1911059330729525 C
  atom -2.8898786628169391 1.1070661736788590 0.1910984069196908 C
  atom 0.6866483374756416 -4.2740741020038344 0.2437463078826529 C
  atom -0.6864663134576114 -4.2738253991447417 0.2437405221368318 C
  atom 0.6864666176066265 4.2738257496071288 0.2437311286690010 C
  atom -0.6866488178520985 4.2740746452341050 0.2437369411591707 C
  atom 4.2738299575529162 -0.6864705148390604 0.2437428531541841 C
  atom 4.2740698214222164 0.6866444440936832 0.2437450560771322 C
  atom -4.2740697755377628 -0.6866460374758333 0.2437483969102614 C
  atom -4.2738299968933360 0.6864689247166013 0.2437394838951464 C
  atom 2.4408038969294656 -2.4408048509131661 0.1813706830319727 C
  atom -2.4408040725947449 -2.4408044585832145 0.1813707969467811 C
  atom -2.4408049384366666 2.4408042525116493 0.1813500430552519 C
  atom 2.4408050512540092 2.4408038670477077 0.1813498468951862 C
  atom 1.3538445575885185 -5.1289839243937720 0.2790980614502607 H
  atom -1.3560309433624893 -5.1318250538231984 0.2791557682666284 H
  atom 1.3560318970776757 5.1318261715169040 0.2791579037714209 H
  atom -1.3538440164674885 5.1289830935053002 0.2791002071950205 H
  atom 5.1317736423458076 -1.3559931624716919 0.2791673952492727 H
  atom 5.1290350493489916 1.3538825687117271 0.2791024933492421 H
  atom -5.1290341529958861 -1.3538849708364022 0.2791115640626898 H
  atom -5.1317744903438136 1.3559907364955541 0.2791580569683409 H
  atom 3.2118999808556401 3.2118915797288601 0.2264350786195388 H
  atom 3.2118900717489987 -3.2118985101623974 0.2264525426189311 H
  atom -3.2118986444325954 -3.2118928559105204 0.2264526778941836 H
  atom -3.2118915538229271 3.2118970846338013 0.2264351316200269 H
  homogeneous_field 0.0 0.0 -0.1000000000000000
  set_vacuum_level 52.0553949999999972
  
  -----------------------------------------------------------------------
  Completed first pass over input file geometry.in .
  -----------------------------------------------------------------------
  
* Attention. An external embedding field
* was specified for a periodic system.
* At present, this combination is experimental,
* and incorrect results could be obtained.
* Please proceed with caution.

  Basic array size parameters:
  | Number of species                 :        5
  | Number of atoms                   :      293
  | Number of lattice vectors         :        3
  | Max. basis fn. angular momentum   :        3
  | Max. atomic/ionic basis occupied n:        5
  | Max. number of basis fn. types    :        3
  | Max. radial fns per species/type  :       10
  | Max. logarithmic grid size        :     1446
  | Max. radial integration grid size :       62
  | Max. angular integration grid size:      302
  | Max. angular grid division number :        8
  | Radial grid for Hartree potential :     1446
  | Number of spin channels           :        1
  | External embedding multipoles     :        0

  Definition of standardized fundamental physical constants in this FHI-aims run:
  | Using the set of values used in FHI-aims up to 2024, which combines values from
  | different CODATA sets - see constants.f90.
  | Use the 'codata' keyword in control.in to change this selection.

  Memory overcommitment is allowed on your operating system.

------------------------------------------------------------
          Reading file control.in.
------------------------------------------------------------
  XC: Using PBE gradient-corrected functionals.
  Scalar relativistic treatment of kinetic energy: on-site free-atom approximation to ZORA.
  Found k-point grid:         1         1         1
  Spin treatment: No spin polarisation.
  Using dipole correction.
  Forces will be computed.
  Requested output level: MD_light
  Convergence accuracy of self-consistent charge density:  0.1000E-06
  Dipole moment will be written out.
** WARNING:
  *** You requested dipole moment output in a periodic nearfield calculation.
  *** This only makes sense for z-oriented slabs.
  *** Compliance will be checked before dipole output.
** END OF WARNING
  Initial tip position [Ang]:  -0.000030  -1.696604  -4.614000
  Initial system reference position position [Ang]:  -0.000057  -3.206117  -8.719196
  Tip - molecule z-distance [Ang]:   4.000000
  System coordinates displacement relative to the tip position by in the xy plane [Ang]:  -0.541667   4.875000
 
  Reading configuration options for species Ag                  .
  | Found explicit parameters for TS-vdw correction:
  |    C6    = 122.000000
  |    alpha =  15.400000
  |    R0    =   2.570000
  | Found nuclear charge :  47.0000
  | Found atomic mass :    107.868200000000      amu
  | Found l_max for Hartree potential  :   4
  | Found cutoff potl. onset [A], width [A], scale factor :    3.50000    1.50000    1.00000
  | Threshold for basis-dependent cutoff potential is   0.100000E-03
  | Found data for basic radial integration grid :    62 points, outermost radius =    5.000 A
  | Found multiplier for basic radial grid :   1
  | Found angular grid specification: user-specified.
  | Specified grid contains     5 separate shells.
  | Check grid settings after all constraints further below.
  | Found free-atom valence shell :  5 s   1.000
  | Found free-atom valence shell :  4 p   6.000
  | Found free-atom valence shell :  4 d  10.000
  | Found free-ion valence shell :  5 s   0.000
  | Found free-ion valence shell :  4 p   6.000
  | Found free-ion valence shell :  4 d   9.000
  | Found ionic basis function :  5 p , default cutoff radius.
  | Found hydrogenic basis function :  4 f   7.600
  | Found hydrogenic basis function :  3 s   2.600
  | Found hydrogenic basis function :  4 d   8.400
 | Encountered keyword species, ending the description of species Ag                  .
  Species Ag                  : Missing cutoff potential type.
  Defaulting to exp(1/x)/(1-x)^2 type cutoff potential.
  Species Ag: No 'logarithmic' tag. Using default grid for free atom:
  | Default logarithmic grid data [bohr] : 0.1000E-03 0.1000E+03 0.1012E+01
  | Will include ionic basis functions of  2.0-fold positive Ag                   ion.
  Species Ag: On-site basis accuracy parameter (for Gram-Schmidt orthonormalisation) not specified.
  Using default value basis_acc =  0.1000000E-03.
  Species Ag                  : Using default innermost maximum threshold i_radial=  2 for radial functions.
  Species Ag                  : Default cutoff onset for free atom density etc. : 0.35000000E+01 AA.
  Species Ag                  : Basic radial grid will be enhanced according to radial_multiplier =   1, to contain    62 grid points.
 
  Reading configuration options for species Mg                  .
  | Found nuclear charge :  12.0000
  | Found atomic mass :    24.3050000000000      amu
  | Found l_max for Hartree potential  :   4
  | Found cutoff potl. onset [A], width [A], scale factor :    4.00000    1.50000    1.00000
  | Threshold for basis-dependent cutoff potential is   0.100000E-03
  | Found data for basic radial integration grid :    40 points, outermost radius =    5.500 A
  | Found multiplier for basic radial grid :   1
  | Found angular grid specification: user-specified.
  | Specified grid contains     5 separate shells.
  | Check grid settings after all constraints further below.
  | Found free-atom valence shell :  3 s   2.000
  | Found free-atom valence shell :  2 p   6.000
  | Found free-ion valence shell :  2 s   2.000
  | Found free-ion valence shell :  2 p   6.000
  | Found hydrogenic basis function :  2 p   1.500
  | Found ionic basis function :  3 d , default cutoff radius.
  | Found hydrogenic basis function :  3 s   2.400
 | Encountered keyword species, ending the description of species Mg                  .
  Species Mg                  : Missing cutoff potential type.
  Defaulting to exp(1/x)/(1-x)^2 type cutoff potential.
  Species Mg: No 'logarithmic' tag. Using default grid for free atom:
  | Default logarithmic grid data [bohr] : 0.1000E-03 0.1000E+03 0.1012E+01
  | Will include ionic basis functions of  2.0-fold positive Mg                   ion.
  Species Mg: On-site basis accuracy parameter (for Gram-Schmidt orthonormalisation) not specified.
  Using default value basis_acc =  0.1000000E-03.
  Species Mg                  : Using default innermost maximum threshold i_radial=  2 for radial functions.
  Species Mg                  : Default cutoff onset for free atom density etc. : 0.40000000E+01 AA.
  Species Mg                  : Basic radial grid will be enhanced according to radial_multiplier =   1, to contain    40 grid points.
 
  Reading configuration options for species N                   .
  | Found nuclear charge :   7.0000
  | Found atomic mass :    14.0067000000000      amu
  | Found l_max for Hartree potential  :   4
  | Found cutoff potl. onset [A], width [A], scale factor :    3.50000    1.50000    1.00000
  | Threshold for basis-dependent cutoff potential is   0.100000E-03
  | Found data for basic radial integration grid :    35 points, outermost radius =    5.000 A
  | Found multiplier for basic radial grid :   1
  | Found angular grid specification: user-specified.
  | Specified grid contains     5 separate shells.
  | Check grid settings after all constraints further below.
  | Found free-atom valence shell :  2 s   2.000
  | Found free-atom valence shell :  2 p   3.000
  | Found free-ion valence shell :  2 s   1.000
  | Found free-ion valence shell :  2 p   2.000
  | Found hydrogenic basis function :  2 p   1.800
  | Found hydrogenic basis function :  3 d   6.800
  | Found hydrogenic basis function :  3 s   5.800
 | Encountered keyword species, ending the description of species N                   .
  Species N                   : Missing cutoff potential type.
  Defaulting to exp(1/x)/(1-x)^2 type cutoff potential.
  Species N : No 'logarithmic' tag. Using default grid for free atom:
  | Default logarithmic grid data [bohr] : 0.1000E-03 0.1000E+03 0.1012E+01
  Species N : On-site basis accuracy parameter (for Gram-Schmidt orthonormalisation) not specified.
  Using default value basis_acc =  0.1000000E-03.
  Species N                   : Using default innermost maximum threshold i_radial=  2 for radial functions.
  Species N                   : Default cutoff onset for free atom density etc. : 0.35000000E+01 AA.
  Species N                   : Basic radial grid will be enhanced according to radial_multiplier =   1, to contain    35 grid points.
 
  Reading configuration options for species C                   .
  | Found nuclear charge :   6.0000
  | Found atomic mass :    12.0107000000000      amu
  | Found l_max for Hartree potential  :   4
  | Found cutoff potl. onset [A], width [A], scale factor :    3.50000    1.50000    1.00000
  | Threshold for basis-dependent cutoff potential is   0.100000E-03
  | Found data for basic radial integration grid :    34 points, outermost radius =    5.000 A
  | Found multiplier for basic radial grid :   1
  | Found angular grid specification: user-specified.
  | Specified grid contains     5 separate shells.
  | Check grid settings after all constraints further below.
  | Found free-atom valence shell :  2 s   2.000
  | Found free-atom valence shell :  2 p   2.000
  | Found free-ion valence shell :  2 s   1.000
  | Found free-ion valence shell :  2 p   1.000
  | Found hydrogenic basis function :  2 p   1.700
  | Found hydrogenic basis function :  3 d   6.000
  | Found hydrogenic basis function :  2 s   4.900
 | Encountered keyword species, ending the description of species C                   .
  Species C                   : Missing cutoff potential type.
  Defaulting to exp(1/x)/(1-x)^2 type cutoff potential.
  Species C : No 'logarithmic' tag. Using default grid for free atom:
  | Default logarithmic grid data [bohr] : 0.1000E-03 0.1000E+03 0.1012E+01
  Species C : On-site basis accuracy parameter (for Gram-Schmidt orthonormalisation) not specified.
  Using default value basis_acc =  0.1000000E-03.
  Species C                   : Using default innermost maximum threshold i_radial=  2 for radial functions.
  Species C                   : Default cutoff onset for free atom density etc. : 0.35000000E+01 AA.
  Species C                   : Basic radial grid will be enhanced according to radial_multiplier =   1, to contain    34 grid points.
 
  Reading configuration options for species H                   .
  | Found nuclear charge :   1.0000
  | Found atomic mass :    1.00794000000000      amu
  | Found l_max for Hartree potential  :   4
  | Found cutoff potl. onset [A], width [A], scale factor :    3.50000    1.50000    1.00000
  | Threshold for basis-dependent cutoff potential is   0.100000E-03
  | Found data for basic radial integration grid :    24 points, outermost radius =    5.000 A
  | Found multiplier for basic radial grid :   1
  | Found angular grid specification: user-specified.
  | Specified grid contains     5 separate shells.
  | Check grid settings after all constraints further below.
  | Found free-atom valence shell :  1 s   1.000
  | Found free-ion valence shell :  1 s   0.500
  | Found hydrogenic basis function :  2 s   2.100
  | Found hydrogenic basis function :  2 p   3.500
  Species H                   : Missing cutoff potential type.
  Defaulting to exp(1/x)/(1-x)^2 type cutoff potential.
  Species H : No 'logarithmic' tag. Using default grid for free atom:
  | Default logarithmic grid data [bohr] : 0.1000E-03 0.1000E+03 0.1012E+01
  Species H : On-site basis accuracy parameter (for Gram-Schmidt orthonormalisation) not specified.
  Using default value basis_acc =  0.1000000E-03.
  Species H                   : Using default innermost maximum threshold i_radial=  2 for radial functions.
  Species H                   : Default cutoff onset for free atom density etc. : 0.35000000E+01 AA.
  Species H                   : Basic radial grid will be enhanced according to radial_multiplier =   1, to contain    24 grid points.
 
  Finished reading input file 'control.in'.
 
------------------------------------------------------------


------------------------------------------------------------
          Reading geometry description geometry.in.
------------------------------------------------------------
  Homogeneous electric field specified. Values:  0.000000E+00  0.000000E+00 -0.100000E+00
  Vacuum level in z-axis :   0.520554E+02
  | The smallest distance between any two atoms is         1.08502002 AA.
  | The first atom of this pair is atom number                    273 .
  | The second atom of this pair is atom number                   285 .
  | Wigner-Seitz cell of the first atom image           0     0     0 .
  | (The Wigner-Seitz cell of the second atom is 0 0 0  by definition.)

  Symmetry information by spglib:
  | Precision set to  0.1E-04
  | Number of Operations  : 1
  | Space group           : 1
  | International         : P1
  | Schoenflies           : C1^1
  Input structure read successfully.
  The structure contains      293 atoms,  and a total of      12204.000 electrons.

  Input geometry:
  | Unit cell:
  |       23.51554312        0.00000000        0.00000000
  |        0.00000000       23.51554312        0.00000000
  |        0.00000000        0.00000000      106.23550000
  | Atomic structure:
  |       Atom                x [A]            y [A]            z [A]
  |    1: Species Ag           -7.89030519       -7.10977912      -18.19657686
  |    2: Species Ag           -4.95086230       -7.10977912      -18.19657686
  |    3: Species Ag           -2.01141941       -7.10977912      -18.19657686
  |    4: Species Ag            0.92802348       -7.10977912      -18.19657686
  |    5: Species Ag            3.86746637       -7.10977912      -18.19657686
  |    6: Species Ag            6.80690926       -7.10977912      -18.19657686
  |    7: Species Ag            9.74635215       -7.10977912      -18.19657686
  |    8: Species Ag           12.68579504       -7.10977912      -18.19657686
  |    9: Species Ag           -7.89030519       -4.17033623      -18.19657686
  |   10: Species Ag           -4.95086230       -4.17033623      -18.19657686
  |   11: Species Ag           -2.01141941       -4.17033623      -18.19657686
  |   12: Species Ag            0.92802348       -4.17033623      -18.19657686
  |   13: Species Ag            3.86746637       -4.17033623      -18.19657686
  |   14: Species Ag            6.80690926       -4.17033623      -18.19657686
  |   15: Species Ag            9.74635215       -4.17033623      -18.19657686
  |   16: Species Ag           12.68579504       -4.17033623      -18.19657686
  |   17: Species Ag           -7.89030519       -1.23089334      -18.19657686
  |   18: Species Ag           -4.95086230       -1.23089334      -18.19657686
  |   19: Species Ag           -2.01141941       -1.23089334      -18.19657686
  |   20: Species Ag            0.92802348       -1.23089334      -18.19657686
  |   21: Species Ag            3.86746637       -1.23089334      -18.19657686
  |   22: Species Ag            6.80690926       -1.23089334      -18.19657686
  |   23: Species Ag            9.74635215       -1.23089334      -18.19657686
  |   24: Species Ag           12.68579504       -1.23089334      -18.19657686
  |   25: Species Ag           -7.89030519        1.70854955      -18.19657686
  |   26: Species Ag           -4.95086230        1.70854955      -18.19657686
  |   27: Species Ag           -2.01141941        1.70854955      -18.19657686
  |   28: Species Ag            0.92802348        1.70854955      -18.19657686
  |   29: Species Ag            3.86746637        1.70854955      -18.19657686
  |   30: Species Ag            6.80690926        1.70854955      -18.19657686
[...]
  |  169          0.455209510949540E-02         -0.273995269190117E-02         -0.728249424419834E-01
  |  170         -0.798727544930167E-02          0.914964690813490E-02         -0.911527901555932E-01
  |  171         -0.315459152594337E-02          0.605013309723106E-02         -0.904374339828109E-01
  |  172          0.286693416164162E-02          0.613895623021815E-02         -0.920028324774700E-01
  |  173          0.795430005637642E-02          0.940419998445763E-02         -0.945783009562573E-01
  |  174         -0.456282653969856E-02         -0.238878434662698E-02         -0.772909917222250E-01
  |  175         -0.298988400785591E-03          0.212905988420648E-02         -0.735118516271242E-01
  |  176         -0.378479978825559E-02          0.157754763047083E-02         -0.568688563207459E-01
  |  177          0.168331377889984E-03          0.234800689458740E-02         -0.636157828326053E-01
  |  178          0.352098274978964E-02         -0.154266521280032E-02         -0.635658952474804E-01
  |  179         -0.732539169464208E-03          0.578980840880153E-02         -0.751194088368269E-01
  |  180          0.512933410282960E-03          0.590524262040298E-02         -0.758835738481780E-01
  |  181         -0.356422197423906E-02         -0.129360785087811E-02         -0.651037336149984E-01
  |  182         -0.271022829536984E-03          0.277243848310786E-02         -0.659868248588480E-01
  |  183          0.109996271548505E-02          0.129405181085686E-02         -0.617782367660908E-01
  |  184         -0.343970322682608E-02         -0.832731857452064E-03         -0.521401537196829E-01
  |  185          0.723333263300734E-03         -0.291707416996284E-02         -0.768425229347881E-01
  |  186         -0.172345732264048E-02         -0.555695109636735E-02         -0.855707352763956E-01
  |  187         -0.123053876079917E-02         -0.544085696545676E-02         -0.931374602712287E-01
  |  188          0.856485314699939E-03         -0.561805870748475E-02         -0.947681561836320E-01
  |  189          0.164818915082901E-02         -0.597676978147972E-02         -0.891566766233233E-01
  |  190         -0.754140623428970E-03         -0.358344714366618E-02         -0.814625260995020E-01
  |  191          0.176609742140151E-02         -0.300593493659538E-02         -0.729367481535382E-01
  |  192         -0.517410163424869E-02         -0.734548352795909E-03         -0.577094863638616E-01
  |  193         -0.328175466210271E+00         -0.227165979099011E+00         -0.335548213430753E+00
  |  194         -0.347032543087732E+00         -0.368857681957154E+00         -0.525755754308050E+00
  |  195         -0.285030494700195E+00         -0.540650210605917E+00         -0.749631009396930E+00
  |  196         -0.672407364586435E-01         -0.654457262522010E+00         -0.893965535980882E+00
  |  197          0.195492308706749E+00         -0.612377785301737E+00         -0.839533630350208E+00
  |  198          0.332261156442708E+00         -0.453843399480172E+00         -0.637864740606986E+00
  |  199          0.338623680326661E+00         -0.291351735956670E+00         -0.427072115344886E+00
  |  200          0.170644548922426E+01         -0.260723551243837E-01         -0.109162151299673E+00
  |  201         -0.444342426766262E+00         -0.183403807352075E+00         -0.452279822795652E+00
  |  202         -0.531133653373021E+00         -0.331963379365036E+00         -0.775314098248553E+00
  |  203         -0.486433998621318E+00         -0.543661066304435E+00         -0.121754087694716E+01
  |  204         -0.123200984651698E+00         -0.709359928636495E+00         -0.155243539755276E+01
  |  205          0.350153294245310E+00         -0.644435831508421E+00         -0.142241504144698E+01
  |  206          0.537652566380556E+00         -0.431230452160568E+00         -0.987095166802799E+00
  |  207          0.484225986700522E+00         -0.245526109298462E+00         -0.597543540672492E+00
  |  208          0.202358056753224E+01         -0.208663952766174E-01         -0.123371506372925E+00
  |  209         -0.529931242466432E+00         -0.627362050742008E-01         -0.529766860774235E+00
  |  210         -0.675347095445908E+00         -0.122710001328552E+00         -0.966017970921339E+00
  |  211         -0.658933026297586E+00         -0.199945971522194E+00         -0.161048576591036E+01
  |  212         -0.184202550677113E+00         -0.283264071258685E+00         -0.217341042266017E+01
  |  213          0.490861008160694E+00         -0.252172686232410E+00         -0.195784900299293E+01
  |  214          0.713171689032331E+00         -0.165344992203368E+00         -0.127539901419554E+01
  |  215          0.596013162064069E+00         -0.861389948090984E-01         -0.717482184668787E+00
  |  216          0.221210608149803E+01         -0.341183334933072E-02         -0.131220048675106E+00
  |  217         -0.519134641860005E+00          0.889305254976259E-01         -0.521253840504936E+00
  |  218         -0.637641776373455E+00          0.187240483457475E+00         -0.914033568536430E+00
  |  219         -0.621489184428299E+00          0.343064376582522E+00         -0.151858192681614E+01
  |  220         -0.171951838956120E+00          0.406681659433180E+00         -0.195418695621659E+01
  |  221          0.457088112761461E+00          0.415734302866079E+00         -0.184815800758219E+01
  |  222          0.671146116919167E+00          0.248800040345402E+00         -0.120884047975438E+01
  |  223          0.581924490852084E+00          0.124463612573298E+00         -0.701837585067149E+00
  |  224          0.218961736597083E+01          0.934775540517048E-02         -0.131384524454693E+00
  |  225         -0.423318582221105E+00          0.202105166908975E+00         -0.433616842154255E+00
  |  226         -0.467378570367872E+00          0.356063103479596E+00         -0.678819502011961E+00
  |  227         -0.450070646555145E+00          0.564117989975415E+00         -0.957728834098404E+00
  |  228         -0.107036037631084E+00          0.705680615952263E+00         -0.134698427109897E+01
  |  229          0.322935090173378E+00          0.661230967150137E+00         -0.113519815776943E+01
  |  230          0.468580621502647E+00          0.457427409060343E+00         -0.866582568998855E+00
  |  231          0.458552098047850E+00          0.268920280769089E+00         -0.564982116555952E+00
  |  232          0.196428718768574E+01          0.225240586625464E-01         -0.119598586818122E+00
  |  233         -0.301590957477631E+00          0.236218754684724E+00         -0.315077266583891E+00
  |  234         -0.296849226757053E+00          0.358752440878567E+00         -0.455096410776863E+00
  |  235         -0.222631884832731E+00          0.503855184288276E+00         -0.607349784327672E+00
  |  236         -0.584363034023734E-01          0.646187495967794E+00         -0.624429254333646E+00
  |  237          0.142151190184468E+00          0.570312017111698E+00         -0.681322199446161E+00
  |  238          0.280510321751076E+00          0.439174948067443E+00         -0.549020436428343E+00
  |  239          0.308000635264016E+00          0.298705409916557E+00         -0.393250581271217E+00
  |  240          0.162725734527042E+01          0.276266188101086E-01         -0.100724304432574E+00
  |  241         -0.197142332016358E+00          0.211749667725769E+00         -0.213477597203413E+00
  |  242         -0.186221274212633E+00          0.310259280436254E+00         -0.299398016215896E+00
  |  243         -0.123287314386381E+00          0.387455876884180E+00         -0.353184454106226E+00
  |  244         -0.304168980215455E-01          0.436311437034601E+00         -0.378389785072594E+00
  |  245          0.778200263573126E-01          0.423465947099066E+00         -0.383324568946968E+00
  |  246          0.169112780754062E+00          0.360493930286038E+00         -0.341350411205073E+00
  |  247          0.190715954633303E+00          0.257380738440780E+00         -0.254411860788849E+00
  |  248          0.127724629276547E+01          0.222909355208211E-01         -0.825133966429861E-01
  |  249         -0.777311024534607E-02         -0.149457264095144E+00         -0.656123938701062E-01
  |  250         -0.554615798562375E-02         -0.190650148105021E+00         -0.721598981834088E-01
  |  251         -0.796673838368788E-02         -0.232328775422922E+00         -0.784149231088337E-01
  |  252         -0.121000454991358E-02         -0.254052951970903E+00         -0.840117294708183E-01
  |  253          0.640432756253701E-02         -0.247349148777782E+00         -0.808318436833056E-01
  |  254          0.503400138250054E-02         -0.213142224900287E+00         -0.755535948869201E-01
  |  255          0.477974211677044E-02         -0.172505284379537E+00         -0.696612423299596E-01
  |  256          0.371292252026479E-01         -0.376341033304859E-01         -0.517892243037635E-01
  |  257         -0.847780587881964E-01          0.543010730826821E+00         -0.246374937245272E+00
  |  258         -0.128174725216435E+00          0.484917158547249E+00         -0.720452403603151E+00
  |  259          0.102921108093219E+00          0.334958652026338E+00         -0.353899591336103E+00
  |  260         -0.252800467837910E-01          0.235577699260674E+00         -0.220361063719499E+00
  |  261         -0.163924553013476E+00          0.262720105690379E+00         -0.300925360506299E+00
  |  262          0.114042787890713E+00          0.397027133269803E+00         -0.788789499088735E+00
  |  263         -0.328341456385555E+00          0.313089674559682E+00         -0.612774839954121E+00
  |  264          0.597191991918835E-01          0.149498302979222E+00         -0.138720355613888E+00
  |  265         -0.862070409494199E-01          0.142239634476489E+00         -0.133319706279797E+00
  |  266          0.145101409920748E+00          0.241712737879870E+00         -0.346167438689625E+00
  |  267          0.581194679163055E-01          0.257116314913165E+00         -0.189571490564609E+00
  |  268         -0.178420840378270E+00          0.155872542495267E+00         -0.257508768141142E+00
  |  269         -0.813943384137483E-01          0.217077909291133E+00         -0.163152984665834E+00
  |  270         -0.176732575155462E+00          0.186280845627809E+00         -0.112465038625155E+01
  |  271         -0.257957768427539E+00          0.587848587781192E-01         -0.915383486900791E+00
  |  272         -0.415215359829124E-01          0.152155209560107E+00         -0.103808344941979E+00
  |  273          0.103623992302432E+00          0.374681435122589E-01         -0.107305502562690E+00
  |  274          0.205400758746003E+00          0.251550599168235E+00         -0.236203365314124E+00
  |  275          0.385196662951605E-01          0.530136502754193E-01         -0.179390896277346E+00
  |  276         -0.855481435096568E-01          0.260589146795324E+00         -0.181189306976079E+00
  |  277         -0.145897004960356E+00          0.853284005019076E-01         -0.141765486125277E+00
  |  278          0.187210011323598E+00          0.355368541875424E+00         -0.411232418204666E+00
  |  279         -0.227957263947939E+00          0.241133325606458E+00         -0.228558080503266E+00
  |  280         -0.245751226686492E-01          0.102879589885587E+00          0.237222042565060E-01
  |  281          0.827353811906752E-03          0.128213365566248E+00          0.112662110046786E-01
  |  282          0.618550438811091E-01         -0.832755444795315E-01         -0.131682656626733E+00
  |  283         -0.191063352515855E-01          0.251401398220204E-01         -0.912898854298772E-01
  |  284         -0.403311641119583E-01         -0.176729306619130E-01         -0.223601076461217E-02
  |  285         -0.437539457997273E-01          0.869315723139532E-01          0.232575960715194E-02
  |  286         -0.128886502288239E-02          0.664853885870491E-01         -0.193785728254914E-01
  |  287          0.850377472835906E-01          0.618667538011724E-01         -0.369252727451022E-02
  |  288         -0.959816546221742E-01         -0.219676003909067E-01         -0.702190954581180E-02
  |  289          0.171501371080686E-01         -0.230741660472391E-01         -0.498687366975605E-02
  |  290          0.145591836349056E-02          0.180158992584392E-01         -0.456257838127708E-01
  |  291          0.471241096245392E-01          0.410938138630515E-01         -0.107023271906883E+00
  |  292         -0.441581121220578E-01          0.252845465138716E-01         -0.774013445166651E-01
  |  293         -0.414296460465364E-02          0.140077345221369E-01         -0.442516235672060E-01


  Writing energy levels:
  Writing energy levels:

------------------------------------------------------------------------------
  Final output of selected total energy values:

  The following output summarizes some interesting total energy values
  at the end of a run (AFTER all relaxation, molecular dynamics, etc.).

  | Total energy of the DFT / Hartree-Fock s.c.f. calculation      :      -37507670.154610857 eV
  | Final zero-broadening corrected energy (caution - metals only) :      -37507670.161590680 eV
  | For reference only, the value of 1 Hartree used in FHI-aims is :             27.211384500 eV
  | For reference only, the overall average (free atom contribution
  | + realspace contribution) of the electrostatic potential after
  | s.c.f. convergence is                                          :             -1.834777651 eV

  Before relying on these values, please be sure to understand exactly which
  total energy value is referred to by a given number. Different objects may
  all carry the same name 'total energy'. Definitions:

  Total energy of the DFT / Hartree-Fock s.c.f. calculation:
  | Note that this energy does not include ANY quantities calculated after the
  | s.c.f. cycle, in particular not ANY RPA, MP2, etc. many-body perturbation terms.

  Final zero-broadening corrected energy:
  | For metallic systems only, a broadening of the occupation numbers at the Fermi
  | level can be extrapolated back to zero broadening by an electron-gas inspired
  | formula. For all systems that are not real metals, this value can be
  | meaningless and should be avoided.

------------------------------------------------------------------------------
  Methods described in the following list of references were used in this FHI-aims run.
  If you publish the results, please make sure to cite these reference if they apply.
  FHI-aims is an academic code, and for our developers (often, Ph.D. students
  and postdocs), scientific credit in the community is essential.
  Thank you for helping us!

  For any use of FHI-aims, please cite:

    Volker Blum, Ralf Gehrke, Felix Hanke, Paula Havu, Ville Havu,
    Xinguo Ren, Karsten Reuter, and Matthias Scheffler
    'Ab initio molecular simulations with numeric atom-centered orbitals'
    Computer Physics Communications 180, 2175-2196 (2009)
    http://doi.org/10.1016/j.cpc.2009.06.022


  For pseudopotentials or QM/MM embedding infrastructure used in your run, please cite:

    D. Berger, A. J. Logsdail, H. Oberhofer, M. R. Farrow, C. R. A. Catlow, P. Sherwood,
    A. A. Sokol, V. Blum, and K. Reuter,
    'Embedded-cluster calculations in a numeric atomic orbital'
    'density-functional theory framework'
    The Journal of Chemical Physics 141, (2014).
    http://doi.org/10.1063/1.4885816


  The provided symmetry information was generated with SPGlib:

    Atsushi Togo, Yusuke Seto, Dimitar Pashov
    SPGlib 1.7.3 obtained from http://spglib.sourceforge.net
    Licence: New BSD license
    Copyright (C) 2008 Atsushi Togo


  The ELSI infrastructure was used in your run to solve the Kohn-Sham electronic structure.
  Please check out https://wordpress.elsi-interchange.org to learn more.
  If scalability is important for your project, please acknowledge ELSI by citing:

    V. W-z. Yu, F. Corsetti, A. Garcia, W. P. Huhn, M. Jacquelin, W. Jia,
    B. Lange, L. Lin, J. Lu, W. Mi, A. Seifitokaldani, A. Vazquez-Mayagoitia,
    C. Yang, H. Yang, and V. Blum
    'ELSI: A unified software interface for Kohn-Sham electronic structure solvers'
    Computer Physics Communications 222, 267-285 (2018).
    http://doi.org/10.1016/j.cpc.2017.09.007


  For the real-space grid partitioning and parallelization used in this calculation, please cite:

    Ville Havu, Volker Blum, Paula Havu, and Matthias Scheffler,
    'Efficient O(N) integration for all-electron electronic structure calculation'
    'using numerically tabulated basis functions'
    Journal of Computational Physics 228, 8367-8379 (2009).
    http://doi.org/10.1016/j.jcp.2009.08.008

  Of course, there are many other important community references, e.g., those cited in the
  above references. Our list is limited to references that describe implementations in the
  FHI-aims code. The reason is purely practical (length of this list) - please credit others as well.
------------------------------------------------------------
Warnings summary:

At least    1 warnings were raised during execution.
** WARNING:
 * A warning was issued further up regarding the accuracy of onsite integrals.
   An integral with a negative eigenvalue was among the flagged integrals.
   In most standard situations, this warning is probably harmless.
   If needed, this can be verified by adjusting the radial_multiplier flag.
** END OF WARNING
** WARNING:
 * A warning was issued further up regarding the speed of the s.c.f. convergence.
   One or more s.c.f. cycles took more than 50 s.c.f. iterations.
   It might be worth adjusting your convergence settings. For example,
   metals need a larger broadening and a smaller "charge_mix_param" value than semiconduct
ors.
** END OF WARNING

------------------------------------------------------------
          Leaving FHI-aims.
          Date     :  20251121, Time     :  002849.666

          Computational steps:
          | Number of self-consistency cycles          :          101
          | Number of SCF (re)initializations          :            1

          Detailed time accounting                     :  max(cpu_time)    wall_clock(cpu1)
          | Total time                                  :      483.318 s         483.556 s
          | Preparation time                            :        0.786 s           0.785 s
          | Boundary condition initalization            :        0.269 s           0.270 s
          | Grid partitioning                           :        1.492 s           1.491 s
          | Preloading free-atom quantities on grid     :        2.320 s           2.319 s
          | Free-atom superposition energy              :        0.034 s           0.034 s
          | Total time for integrations                 :       34.752 s          34.743 s
          | Total time for solution of K.-S. equations  :      266.662 s         266.673 s
          | Total time for density & force components   :       82.600 s          82.602 s
          | Total time for mixing & preconditioning     :       60.686 s          60.670 s
          | Total time for Hartree multipole update     :        2.147 s           2.151 s
          | Total time for Hartree multipole sum        :       27.316 s          27.314 s
          | Total time for total energy evaluation      :        0.025 s           0.073 s
          | Total time NSC force correction             :        0.611 s           0.612 s
          | Total time for scaled ZORA corrections      :        0.000 s           0.000 s
          | Total time for vdW-like corrections         :        0.829 s           0.829 s
          | Total time for QM/MM embedding              :        0.000 s           0.000 s


          Have a nice day.
------------------------------------------------------------
