------------------------------------------------------------
          Invoking FHI-aims ...

          When using FHI-aims, please cite the following reference:

            Volker Blum, Ralf Gehrke, Felix Hanke, Paula Havu,
            Ville Havu, Xinguo Ren, Karsten Reuter, and Matthias Scheffler,
            'Ab Initio Molecular Simulations with Numeric Atom-Centered Orbitals',
            Computer Physics Communications 180, 2175-2196 (2009)

          In addition, many other developments in FHI-aims are likely important for
          your particular application. If so, please cite them. A partial list of references
          is written at the end of this file. Thank you for giving credit to the authors
          of these developments.

          For general information about FHI-aims please find us at

            https://fhi-aims.org

          Online tutorials can be found at

            https://fhi-aims-club.gitlab.io/tutorials/tutorials-overview/

          For any questions about FHI-aims, please visit our slack channel at

            https://fhi-aims.slack.com

          and our main development and support site at

            https://aims-git.rz-berlin.mpg.de .

          The latter site, in particular, has a wiki to collect information, as well
          as an issue tracker to log discussions, suggest improvements, and report issues
          or bugs. https://aims-git.rz-berlin.mpg.de is also the main development site
          of the project and all new and updated code versions can be obtained there.
          Please send an email to aims-coordinators@fhi-berlin.mpg.de and we will add
          you to these sites. They are for you and everyone is welcome there.

------------------------------------------------------------



  Date     :  20250424, Time     :  184447.362
  Time zero on CPU 1             :   0.220865000000000E+00  s.
  Internal wall clock time zero  :           514752287.362  s.

  FHI-aims created a unique identifier for this run for later identification
  aims_uuid : 26EE6FE8-3C9A-4482-AE51-02F444E54E5C

  Build configuration of the current instance of FHI-aims
  -------------------------------------------------------
  FHI-aims version      : 250131
  Commit number         : b6a99a4ac
  CMake host system     : Linux-5.14.0-427.42.1.el9_4.x86_64
  CMake version         : 3.26.5
  Fortran compiler      : /mpcdf/soft/RHEL_9/packages/x86_64/intel_oneapi/2024.0/mpi/2021.11/bin/mpiifort (Intel) version 2021.1.0.20231117
  Fortran compiler flags: -O3 -ip -fp-model precise -diag-disable=10448 -O2 -g
  C compiler            : /mpcdf/soft/RHEL_9/packages/x86_64/intel/2024.0.2/bin/icx (IntelLLVM) version 2024.0.2
  C compiler flags      : -O3 -fp-model precise -std=gnu99 -O2 -g -DNDEBUG
  C++ compiler          : /mpcdf/soft/RHEL_9/packages/x86_64/intel/2024.0.2/bin/icpx (IntelLLVM) version 2024.0.2
  C++ compiler flags    : -O3 -ip -fp-model precise -O2 -g -DNDEBUG
  HIP compiler          :
  HIP compiler flags    :
  HIP GPU arch          :
  Using MPI
  Using ScaLAPACK
  Using LibXC
  Using i-PI
  Using RLSY
  Linking against: /mpcdf/soft/RHEL_9/packages/x86_64/intel_oneapi/2024.0/mkl/latest/lib/libmkl_intel_lp64.so
                   /mpcdf/soft/RHEL_9/packages/x86_64/intel_oneapi/2024.0/mkl/latest/lib/libmkl_sequential.so
                   /mpcdf/soft/RHEL_9/packages/x86_64/intel_oneapi/2024.0/mkl/latest/lib/libmkl_core.so
                   /mpcdf/soft/RHEL_9/packages/x86_64/intel_oneapi/2024.0/mkl/latest/lib/libmkl_blacs_intelmpi_lp64.so
                   /mpcdf/soft/RHEL_9/packages/x86_64/intel_oneapi/2024.0/mkl/latest/lib/libmkl_scalapack_lp64.so

  Using     1024 parallel tasks.
  Task        0 on host vipc2261 reporting.
  Task        1 on host vipc2261 reporting.
  Task        2 on host vipc2261 reporting.
  Task        3 on host vipc2261 reporting.
  Task        4 on host vipc2261 reporting.
  Task        5 on host vipc2261 reporting.
  Task        6 on host vipc2261 reporting.
  Task        7 on host vipc2261 reporting.
  Task        8 on host vipc2261 reporting.
  Task        9 on host vipc2261 reporting.
  Task       10 on host vipc2261 reporting.
  Task       11 on host vipc2261 reporting.
  Task       12 on host vipc2261 reporting.
  Task       13 on host vipc2261 reporting.
  Task       14 on host vipc2261 reporting.
  Task       15 on host vipc2261 reporting.
  Task       16 on host vipc2261 reporting.
  Task       17 on host vipc2261 reporting.
  Task       18 on host vipc2261 reporting.
  Task       19 on host vipc2261 reporting.
  Task       20 on host vipc2261 reporting.
  Task       21 on host vipc2261 reporting.
  Task       22 on host vipc2261 reporting.
  Task       23 on host vipc2261 reporting.
  Task       24 on host vipc2261 reporting.
  Task       25 on host vipc2261 reporting.
  Task       26 on host vipc2261 reporting.
  Task       27 on host vipc2261 reporting.
  Task       28 on host vipc2261 reporting.
  Task       29 on host vipc2261 reporting.
  Task       30 on host vipc2261 reporting.
  Task       31 on host vipc2261 reporting.
  Task       32 on host vipc2261 reporting.
  Task       33 on host vipc2261 reporting.
  Task       34 on host vipc2261 reporting.
  Task       35 on host vipc2261 reporting.
  Task       36 on host vipc2261 reporting.
  Task       37 on host vipc2261 reporting.
  Task       38 on host vipc2261 reporting.
  Task       39 on host vipc2261 reporting.
  Task       40 on host vipc2261 reporting.
  Task       41 on host vipc2261 reporting.
  Task       42 on host vipc2261 reporting.
  Task       43 on host vipc2261 reporting.
  Task       44 on host vipc2261 reporting.
  Task       45 on host vipc2261 reporting.
  Task       46 on host vipc2261 reporting.
  Task       47 on host vipc2261 reporting.
  Task       48 on host vipc2261 reporting.
  Task       49 on host vipc2261 reporting.
  Task       50 on host vipc2261 reporting.
  Task       51 on host vipc2261 reporting.
  Task       52 on host vipc2261 reporting.
  Task       53 on host vipc2261 reporting.
  Task       54 on host vipc2261 reporting.
  Task       55 on host vipc2261 reporting.
  Task       56 on host vipc2261 reporting.
  Task       57 on host vipc2261 reporting.
  Task       58 on host vipc2261 reporting.
  Task       59 on host vipc2261 reporting.
  Task       60 on host vipc2261 reporting.
  Task       61 on host vipc2261 reporting.
  Task       62 on host vipc2261 reporting.
  Task       63 on host vipc2261 reporting.
  Task       64 on host vipc2261 reporting.
  Task       65 on host vipc2261 reporting.
  Task       66 on host vipc2261 reporting.
  Task       67 on host vipc2261 reporting.
  Task       68 on host vipc2261 reporting.
  Task       69 on host vipc2261 reporting.
  Task       70 on host vipc2261 reporting.
  Task       71 on host vipc2261 reporting.
  Task       72 on host vipc2261 reporting.
  Task       73 on host vipc2261 reporting.
  Task       74 on host vipc2261 reporting.
  Task       75 on host vipc2261 reporting.
  Task       76 on host vipc2261 reporting.
  Task       77 on host vipc2261 reporting.
  Task       78 on host vipc2261 reporting.
  Task       79 on host vipc2261 reporting.
  Task       80 on host vipc2261 reporting.
  Task       81 on host vipc2261 reporting.
  Task       82 on host vipc2261 reporting.
  Task       83 on host vipc2261 reporting.
  Task       84 on host vipc2261 reporting.
  Task       85 on host vipc2261 reporting.
  Task       86 on host vipc2261 reporting.
  Task       87 on host vipc2261 reporting.
  Task       88 on host vipc2261 reporting.
  Task       89 on host vipc2261 reporting.
  Task       90 on host vipc2261 reporting.
  Task       91 on host vipc2261 reporting.
  Task       92 on host vipc2261 reporting.
  Task       93 on host vipc2261 reporting.
  Task       94 on host vipc2261 reporting.
  Task       95 on host vipc2261 reporting.
  Task       96 on host vipc2261 reporting.
  Task       97 on host vipc2261 reporting.
  Task       98 on host vipc2261 reporting.
  Task       99 on host vipc2261 reporting.
  Task      100 on host vipc2261 reporting.
  Task      101 on host vipc2261 reporting.
  Task      102 on host vipc2261 reporting.
  Task      103 on host vipc2261 reporting.
  Task      104 on host vipc2261 reporting.
  Task      105 on host vipc2261 reporting.
  Task      106 on host vipc2261 reporting.
  Task      107 on host vipc2261 reporting.
  Task      108 on host vipc2261 reporting.
  Task      109 on host vipc2261 reporting.
  Task      110 on host vipc2261 reporting.
  Task      111 on host vipc2261 reporting.
  Task      112 on host vipc2261 reporting.
  Task      113 on host vipc2261 reporting.
  Task      114 on host vipc2261 reporting.
  Task      115 on host vipc2261 reporting.
  Task      116 on host vipc2261 reporting.
  Task      117 on host vipc2261 reporting.
  Task      118 on host vipc2261 reporting.
  Task      119 on host vipc2261 reporting.
  Task      120 on host vipc2261 reporting.
  Task      121 on host vipc2261 reporting.
  Task      122 on host vipc2261 reporting.
  Task      123 on host vipc2261 reporting.
  Task      124 on host vipc2261 reporting.
  Task      125 on host vipc2261 reporting.
  Task      126 on host vipc2261 reporting.
  Task      127 on host vipc2261 reporting.
  Task      128 on host vipc2287 reporting.
  Task      129 on host vipc2287 reporting.
  Task      130 on host vipc2287 reporting.
  Task      131 on host vipc2287 reporting.
  Task      132 on host vipc2287 reporting.
  Task      133 on host vipc2287 reporting.
  Task      134 on host vipc2287 reporting.
  Task      135 on host vipc2287 reporting.
  Task      136 on host vipc2287 reporting.
  Task      137 on host vipc2287 reporting.
  Task      138 on host vipc2287 reporting.
  Task      139 on host vipc2287 reporting.
  Task      140 on host vipc2287 reporting.
  Task      141 on host vipc2287 reporting.
  Task      142 on host vipc2287 reporting.
  Task      143 on host vipc2287 reporting.
  Task      144 on host vipc2287 reporting.
  Task      145 on host vipc2287 reporting.
  Task      146 on host vipc2287 reporting.
  Task      147 on host vipc2287 reporting.
  Task      148 on host vipc2287 reporting.
  Task      149 on host vipc2287 reporting.
  Task      150 on host vipc2287 reporting.
  Task      151 on host vipc2287 reporting.
  Task      152 on host vipc2287 reporting.
  Task      153 on host vipc2287 reporting.
  Task      154 on host vipc2287 reporting.
  Task      155 on host vipc2287 reporting.
  Task      156 on host vipc2287 reporting.
  Task      157 on host vipc2287 reporting.
  Task      158 on host vipc2287 reporting.
  Task      159 on host vipc2287 reporting.
  Task      160 on host vipc2287 reporting.
  Task      161 on host vipc2287 reporting.
  Task      162 on host vipc2287 reporting.
  Task      163 on host vipc2287 reporting.
  Task      164 on host vipc2287 reporting.
  Task      165 on host vipc2287 reporting.
  Task      166 on host vipc2287 reporting.
  Task      167 on host vipc2287 reporting.
  Task      168 on host vipc2287 reporting.
  Task      169 on host vipc2287 reporting.
  Task      170 on host vipc2287 reporting.
  Task      171 on host vipc2287 reporting.
  Task      172 on host vipc2287 reporting.
  Task      173 on host vipc2287 reporting.
  Task      174 on host vipc2287 reporting.
  Task      175 on host vipc2287 reporting.
  Task      176 on host vipc2287 reporting.
  Task      177 on host vipc2287 reporting.
  Task      178 on host vipc2287 reporting.
  Task      179 on host vipc2287 reporting.
  Task      180 on host vipc2287 reporting.
  Task      181 on host vipc2287 reporting.
  Task      182 on host vipc2287 reporting.
  Task      183 on host vipc2287 reporting.
  Task      184 on host vipc2287 reporting.
  Task      185 on host vipc2287 reporting.
  Task      186 on host vipc2287 reporting.
  Task      187 on host vipc2287 reporting.
  Task      188 on host vipc2287 reporting.
  Task      189 on host vipc2287 reporting.
  Task      190 on host vipc2287 reporting.
  Task      191 on host vipc2287 reporting.
  Task      192 on host vipc2287 reporting.
  Task      193 on host vipc2287 reporting.
  Task      194 on host vipc2287 reporting.
  Task      195 on host vipc2287 reporting.
  Task      196 on host vipc2287 reporting.
  Task      197 on host vipc2287 reporting.
  Task      198 on host vipc2287 reporting.
  Task      199 on host vipc2287 reporting.
  Task      200 on host vipc2287 reporting.
  Task      201 on host vipc2287 reporting.
  Task      202 on host vipc2287 reporting.
  Task      203 on host vipc2287 reporting.
  Task      204 on host vipc2287 reporting.
  Task      205 on host vipc2287 reporting.
  Task      206 on host vipc2287 reporting.
  Task      207 on host vipc2287 reporting.
  Task      208 on host vipc2287 reporting.
  Task      209 on host vipc2287 reporting.
  Task      210 on host vipc2287 reporting.
  Task      211 on host vipc2287 reporting.
  Task      212 on host vipc2287 reporting.
  Task      213 on host vipc2287 reporting.
  Task      214 on host vipc2287 reporting.
  Task      215 on host vipc2287 reporting.
  Task      216 on host vipc2287 reporting.
  Task      217 on host vipc2287 reporting.
  Task      218 on host vipc2287 reporting.
  Task      219 on host vipc2287 reporting.
  Task      220 on host vipc2287 reporting.
  Task      221 on host vipc2287 reporting.
  Task      222 on host vipc2287 reporting.
  Task      223 on host vipc2287 reporting.
  Task      224 on host vipc2287 reporting.
  Task      225 on host vipc2287 reporting.
  Task      226 on host vipc2287 reporting.
  Task      227 on host vipc2287 reporting.
  Task      228 on host vipc2287 reporting.
  Task      229 on host vipc2287 reporting.
  Task      230 on host vipc2287 reporting.
  Task      231 on host vipc2287 reporting.
  Task      232 on host vipc2287 reporting.
  Task      233 on host vipc2287 reporting.
  Task      234 on host vipc2287 reporting.
  Task      235 on host vipc2287 reporting.
  Task      236 on host vipc2287 reporting.
  Task      237 on host vipc2287 reporting.
  Task      238 on host vipc2287 reporting.
  Task      239 on host vipc2287 reporting.
  Task      240 on host vipc2287 reporting.
  Task      241 on host vipc2287 reporting.
  Task      242 on host vipc2287 reporting.
  Task      243 on host vipc2287 reporting.
  Task      244 on host vipc2287 reporting.
  Task      245 on host vipc2287 reporting.
  Task      246 on host vipc2287 reporting.
  Task      247 on host vipc2287 reporting.
  Task      248 on host vipc2287 reporting.
  Task      249 on host vipc2287 reporting.
  Task      250 on host vipc2287 reporting.
  Task      251 on host vipc2287 reporting.
  Task      252 on host vipc2287 reporting.
  Task      253 on host vipc2287 reporting.
  Task      254 on host vipc2287 reporting.
  Task      255 on host vipc2287 reporting.
  Task      256 on host vipc2396 reporting.
  Task      257 on host vipc2396 reporting.
  Task      258 on host vipc2396 reporting.
  Task      259 on host vipc2396 reporting.
  Task      260 on host vipc2396 reporting.
  Task      261 on host vipc2396 reporting.
  Task      262 on host vipc2396 reporting.
  Task      263 on host vipc2396 reporting.
  Task      264 on host vipc2396 reporting.
  Task      265 on host vipc2396 reporting.
  Task      266 on host vipc2396 reporting.
  Task      267 on host vipc2396 reporting.
  Task      268 on host vipc2396 reporting.
  Task      269 on host vipc2396 reporting.
  Task      270 on host vipc2396 reporting.
  Task      271 on host vipc2396 reporting.
  Task      272 on host vipc2396 reporting.
  Task      273 on host vipc2396 reporting.
  Task      274 on host vipc2396 reporting.
  Task      275 on host vipc2396 reporting.
  Task      276 on host vipc2396 reporting.
  Task      277 on host vipc2396 reporting.
  Task      278 on host vipc2396 reporting.
  Task      279 on host vipc2396 reporting.
  Task      280 on host vipc2396 reporting.
  Task      281 on host vipc2396 reporting.
  Task      282 on host vipc2396 reporting.
  Task      283 on host vipc2396 reporting.
  Task      284 on host vipc2396 reporting.
  Task      285 on host vipc2396 reporting.
  Task      286 on host vipc2396 reporting.
  Task      287 on host vipc2396 reporting.
  Task      288 on host vipc2396 reporting.
  Task      289 on host vipc2396 reporting.
  Task      290 on host vipc2396 reporting.
  Task      291 on host vipc2396 reporting.
  Task      292 on host vipc2396 reporting.
  Task      293 on host vipc2396 reporting.
  Task      294 on host vipc2396 reporting.
  Task      295 on host vipc2396 reporting.
  Task      296 on host vipc2396 reporting.
  Task      297 on host vipc2396 reporting.
  Task      298 on host vipc2396 reporting.
  Task      299 on host vipc2396 reporting.
  Task      300 on host vipc2396 reporting.
  Task      301 on host vipc2396 reporting.
  Task      302 on host vipc2396 reporting.
  Task      303 on host vipc2396 reporting.
  Task      304 on host vipc2396 reporting.
  Task      305 on host vipc2396 reporting.
  Task      306 on host vipc2396 reporting.
  Task      307 on host vipc2396 reporting.
  Task      308 on host vipc2396 reporting.
  Task      309 on host vipc2396 reporting.
  Task      310 on host vipc2396 reporting.
  Task      311 on host vipc2396 reporting.
  Task      312 on host vipc2396 reporting.
  Task      313 on host vipc2396 reporting.
  Task      314 on host vipc2396 reporting.
  Task      315 on host vipc2396 reporting.
  Task      316 on host vipc2396 reporting.
  Task      317 on host vipc2396 reporting.
  Task      318 on host vipc2396 reporting.
  Task      319 on host vipc2396 reporting.
  Task      320 on host vipc2396 reporting.
  Task      321 on host vipc2396 reporting.
  Task      322 on host vipc2396 reporting.
  Task      323 on host vipc2396 reporting.
  Task      324 on host vipc2396 reporting.
  Task      325 on host vipc2396 reporting.
  Task      326 on host vipc2396 reporting.
  Task      327 on host vipc2396 reporting.
  Task      328 on host vipc2396 reporting.
  Task      329 on host vipc2396 reporting.
  Task      330 on host vipc2396 reporting.
  Task      331 on host vipc2396 reporting.
  Task      332 on host vipc2396 reporting.
  Task      333 on host vipc2396 reporting.
  Task      334 on host vipc2396 reporting.
  Task      335 on host vipc2396 reporting.
  Task      336 on host vipc2396 reporting.
  Task      337 on host vipc2396 reporting.
  Task      338 on host vipc2396 reporting.
  Task      339 on host vipc2396 reporting.
  Task      340 on host vipc2396 reporting.
  Task      341 on host vipc2396 reporting.
  Task      342 on host vipc2396 reporting.
  Task      343 on host vipc2396 reporting.
  Task      344 on host vipc2396 reporting.
  Task      345 on host vipc2396 reporting.
  Task      346 on host vipc2396 reporting.
  Task      347 on host vipc2396 reporting.
  Task      348 on host vipc2396 reporting.
  Task      349 on host vipc2396 reporting.
  Task      350 on host vipc2396 reporting.
  Task      351 on host vipc2396 reporting.
  Task      352 on host vipc2396 reporting.
  Task      353 on host vipc2396 reporting.
  Task      354 on host vipc2396 reporting.
  Task      355 on host vipc2396 reporting.
  Task      356 on host vipc2396 reporting.
  Task      357 on host vipc2396 reporting.
  Task      358 on host vipc2396 reporting.
  Task      359 on host vipc2396 reporting.
  Task      360 on host vipc2396 reporting.
  Task      361 on host vipc2396 reporting.
  Task      362 on host vipc2396 reporting.
  Task      363 on host vipc2396 reporting.
  Task      364 on host vipc2396 reporting.
  Task      365 on host vipc2396 reporting.
  Task      366 on host vipc2396 reporting.
  Task      367 on host vipc2396 reporting.
  Task      368 on host vipc2396 reporting.
  Task      369 on host vipc2396 reporting.
  Task      370 on host vipc2396 reporting.
  Task      371 on host vipc2396 reporting.
  Task      372 on host vipc2396 reporting.
  Task      373 on host vipc2396 reporting.
  Task      374 on host vipc2396 reporting.
  Task      375 on host vipc2396 reporting.
  Task      376 on host vipc2396 reporting.
  Task      377 on host vipc2396 reporting.
  Task      378 on host vipc2396 reporting.
  Task      379 on host vipc2396 reporting.
  Task      380 on host vipc2396 reporting.
  Task      381 on host vipc2396 reporting.
  Task      382 on host vipc2396 reporting.
  Task      383 on host vipc2396 reporting.
  Task      384 on host vipc2400 reporting.
  Task      385 on host vipc2400 reporting.
  Task      386 on host vipc2400 reporting.
  Task      387 on host vipc2400 reporting.
  Task      388 on host vipc2400 reporting.
  Task      389 on host vipc2400 reporting.
  Task      390 on host vipc2400 reporting.
  Task      391 on host vipc2400 reporting.
  Task      392 on host vipc2400 reporting.
  Task      393 on host vipc2400 reporting.
  Task      394 on host vipc2400 reporting.
  Task      395 on host vipc2400 reporting.
  Task      396 on host vipc2400 reporting.
  Task      397 on host vipc2400 reporting.
  Task      398 on host vipc2400 reporting.
  Task      399 on host vipc2400 reporting.
  Task      400 on host vipc2400 reporting.
  Task      401 on host vipc2400 reporting.
  Task      402 on host vipc2400 reporting.
  Task      403 on host vipc2400 reporting.
  Task      404 on host vipc2400 reporting.
  Task      405 on host vipc2400 reporting.
  Task      406 on host vipc2400 reporting.
  Task      407 on host vipc2400 reporting.
  Task      408 on host vipc2400 reporting.
  Task      409 on host vipc2400 reporting.
  Task      410 on host vipc2400 reporting.
  Task      411 on host vipc2400 reporting.
  Task      412 on host vipc2400 reporting.
  Task      413 on host vipc2400 reporting.
  Task      414 on host vipc2400 reporting.
  Task      415 on host vipc2400 reporting.
  Task      416 on host vipc2400 reporting.
  Task      417 on host vipc2400 reporting.
  Task      418 on host vipc2400 reporting.
  Task      419 on host vipc2400 reporting.
  Task      420 on host vipc2400 reporting.
  Task      421 on host vipc2400 reporting.
  Task      422 on host vipc2400 reporting.
  Task      423 on host vipc2400 reporting.
  Task      424 on host vipc2400 reporting.
  Task      425 on host vipc2400 reporting.
  Task      426 on host vipc2400 reporting.
  Task      427 on host vipc2400 reporting.
  Task      428 on host vipc2400 reporting.
  Task      429 on host vipc2400 reporting.
  Task      430 on host vipc2400 reporting.
  Task      431 on host vipc2400 reporting.
  Task      432 on host vipc2400 reporting.
  Task      433 on host vipc2400 reporting.
  Task      434 on host vipc2400 reporting.
  Task      435 on host vipc2400 reporting.
  Task      436 on host vipc2400 reporting.
  Task      437 on host vipc2400 reporting.
  Task      438 on host vipc2400 reporting.
  Task      439 on host vipc2400 reporting.
  Task      440 on host vipc2400 reporting.
  Task      441 on host vipc2400 reporting.
  Task      442 on host vipc2400 reporting.
  Task      443 on host vipc2400 reporting.
  Task      444 on host vipc2400 reporting.
  Task      445 on host vipc2400 reporting.
  Task      446 on host vipc2400 reporting.
  Task      447 on host vipc2400 reporting.
  Task      448 on host vipc2400 reporting.
  Task      449 on host vipc2400 reporting.
  Task      450 on host vipc2400 reporting.
  Task      451 on host vipc2400 reporting.
  Task      452 on host vipc2400 reporting.
  Task      453 on host vipc2400 reporting.
  Task      454 on host vipc2400 reporting.
  Task      455 on host vipc2400 reporting.
  Task      456 on host vipc2400 reporting.
  Task      457 on host vipc2400 reporting.
  Task      458 on host vipc2400 reporting.
  Task      459 on host vipc2400 reporting.
  Task      460 on host vipc2400 reporting.
  Task      461 on host vipc2400 reporting.
  Task      462 on host vipc2400 reporting.
  Task      463 on host vipc2400 reporting.
  Task      464 on host vipc2400 reporting.
  Task      465 on host vipc2400 reporting.
  Task      466 on host vipc2400 reporting.
  Task      467 on host vipc2400 reporting.
  Task      468 on host vipc2400 reporting.
  Task      469 on host vipc2400 reporting.
  Task      470 on host vipc2400 reporting.
  Task      471 on host vipc2400 reporting.
  Task      472 on host vipc2400 reporting.
  Task      473 on host vipc2400 reporting.
  Task      474 on host vipc2400 reporting.
  Task      475 on host vipc2400 reporting.
  Task      476 on host vipc2400 reporting.
  Task      477 on host vipc2400 reporting.
  Task      478 on host vipc2400 reporting.
  Task      479 on host vipc2400 reporting.
  Task      480 on host vipc2400 reporting.
  Task      481 on host vipc2400 reporting.
  Task      482 on host vipc2400 reporting.
  Task      483 on host vipc2400 reporting.
  Task      484 on host vipc2400 reporting.
  Task      485 on host vipc2400 reporting.
  Task      486 on host vipc2400 reporting.
  Task      487 on host vipc2400 reporting.
  Task      488 on host vipc2400 reporting.
  Task      489 on host vipc2400 reporting.
  Task      490 on host vipc2400 reporting.
  Task      491 on host vipc2400 reporting.
  Task      492 on host vipc2400 reporting.
  Task      493 on host vipc2400 reporting.
  Task      494 on host vipc2400 reporting.
  Task      495 on host vipc2400 reporting.
  Task      496 on host vipc2400 reporting.
  Task      497 on host vipc2400 reporting.
  Task      498 on host vipc2400 reporting.
  Task      499 on host vipc2400 reporting.
  Task      500 on host vipc2400 reporting.
  Task      501 on host vipc2400 reporting.
  Task      502 on host vipc2400 reporting.
  Task      503 on host vipc2400 reporting.
  Task      504 on host vipc2400 reporting.
  Task      505 on host vipc2400 reporting.
  Task      506 on host vipc2400 reporting.
  Task      507 on host vipc2400 reporting.
  Task      508 on host vipc2400 reporting.
  Task      509 on host vipc2400 reporting.
  Task      510 on host vipc2400 reporting.
  Task      511 on host vipc2400 reporting.
  Task      512 on host vipc2401 reporting.
  Task      513 on host vipc2401 reporting.
  Task      514 on host vipc2401 reporting.
  Task      515 on host vipc2401 reporting.
  Task      516 on host vipc2401 reporting.
  Task      517 on host vipc2401 reporting.
  Task      518 on host vipc2401 reporting.
  Task      519 on host vipc2401 reporting.
  Task      520 on host vipc2401 reporting.
  Task      521 on host vipc2401 reporting.
  Task      522 on host vipc2401 reporting.
  Task      523 on host vipc2401 reporting.
  Task      524 on host vipc2401 reporting.
  Task      525 on host vipc2401 reporting.
  Task      526 on host vipc2401 reporting.
  Task      527 on host vipc2401 reporting.
  Task      528 on host vipc2401 reporting.
  Task      529 on host vipc2401 reporting.
  Task      530 on host vipc2401 reporting.
  Task      531 on host vipc2401 reporting.
  Task      532 on host vipc2401 reporting.
  Task      533 on host vipc2401 reporting.
  Task      534 on host vipc2401 reporting.
  Task      535 on host vipc2401 reporting.
  Task      536 on host vipc2401 reporting.
  Task      537 on host vipc2401 reporting.
  Task      538 on host vipc2401 reporting.
  Task      539 on host vipc2401 reporting.
  Task      540 on host vipc2401 reporting.
  Task      541 on host vipc2401 reporting.
  Task      542 on host vipc2401 reporting.
  Task      543 on host vipc2401 reporting.
  Task      544 on host vipc2401 reporting.
  Task      545 on host vipc2401 reporting.
  Task      546 on host vipc2401 reporting.
  Task      547 on host vipc2401 reporting.
  Task      548 on host vipc2401 reporting.
  Task      549 on host vipc2401 reporting.
  Task      550 on host vipc2401 reporting.
  Task      551 on host vipc2401 reporting.
  Task      552 on host vipc2401 reporting.
  Task      553 on host vipc2401 reporting.
  Task      554 on host vipc2401 reporting.
  Task      555 on host vipc2401 reporting.
  Task      556 on host vipc2401 reporting.
  Task      557 on host vipc2401 reporting.
  Task      558 on host vipc2401 reporting.
  Task      559 on host vipc2401 reporting.
  Task      560 on host vipc2401 reporting.
  Task      561 on host vipc2401 reporting.
  Task      562 on host vipc2401 reporting.
  Task      563 on host vipc2401 reporting.
  Task      564 on host vipc2401 reporting.
  Task      565 on host vipc2401 reporting.
  Task      566 on host vipc2401 reporting.
  Task      567 on host vipc2401 reporting.
  Task      568 on host vipc2401 reporting.
  Task      569 on host vipc2401 reporting.
  Task      570 on host vipc2401 reporting.
  Task      571 on host vipc2401 reporting.
  Task      572 on host vipc2401 reporting.
  Task      573 on host vipc2401 reporting.
  Task      574 on host vipc2401 reporting.
  Task      575 on host vipc2401 reporting.
  Task      576 on host vipc2401 reporting.
  Task      577 on host vipc2401 reporting.
  Task      578 on host vipc2401 reporting.
  Task      579 on host vipc2401 reporting.
  Task      580 on host vipc2401 reporting.
  Task      581 on host vipc2401 reporting.
  Task      582 on host vipc2401 reporting.
  Task      583 on host vipc2401 reporting.
  Task      584 on host vipc2401 reporting.
  Task      585 on host vipc2401 reporting.
  Task      586 on host vipc2401 reporting.
  Task      587 on host vipc2401 reporting.
  Task      588 on host vipc2401 reporting.
  Task      589 on host vipc2401 reporting.
  Task      590 on host vipc2401 reporting.
  Task      591 on host vipc2401 reporting.
  Task      592 on host vipc2401 reporting.
  Task      593 on host vipc2401 reporting.
  Task      594 on host vipc2401 reporting.
  Task      595 on host vipc2401 reporting.
  Task      596 on host vipc2401 reporting.
  Task      597 on host vipc2401 reporting.
  Task      598 on host vipc2401 reporting.
  Task      599 on host vipc2401 reporting.
  Task      600 on host vipc2401 reporting.
  Task      601 on host vipc2401 reporting.
  Task      602 on host vipc2401 reporting.
  Task      603 on host vipc2401 reporting.
  Task      604 on host vipc2401 reporting.
  Task      605 on host vipc2401 reporting.
  Task      606 on host vipc2401 reporting.
  Task      607 on host vipc2401 reporting.
  Task      608 on host vipc2401 reporting.
  Task      609 on host vipc2401 reporting.
  Task      610 on host vipc2401 reporting.
  Task      611 on host vipc2401 reporting.
  Task      612 on host vipc2401 reporting.
  Task      613 on host vipc2401 reporting.
  Task      614 on host vipc2401 reporting.
  Task      615 on host vipc2401 reporting.
  Task      616 on host vipc2401 reporting.
  Task      617 on host vipc2401 reporting.
  Task      618 on host vipc2401 reporting.
  Task      619 on host vipc2401 reporting.
  Task      620 on host vipc2401 reporting.
  Task      621 on host vipc2401 reporting.
  Task      622 on host vipc2401 reporting.
  Task      623 on host vipc2401 reporting.
  Task      624 on host vipc2401 reporting.
  Task      625 on host vipc2401 reporting.
  Task      626 on host vipc2401 reporting.
  Task      627 on host vipc2401 reporting.
  Task      628 on host vipc2401 reporting.
  Task      629 on host vipc2401 reporting.
  Task      630 on host vipc2401 reporting.
  Task      631 on host vipc2401 reporting.
  Task      632 on host vipc2401 reporting.
  Task      633 on host vipc2401 reporting.
  Task      634 on host vipc2401 reporting.
  Task      635 on host vipc2401 reporting.
  Task      636 on host vipc2401 reporting.
  Task      637 on host vipc2401 reporting.
  Task      638 on host vipc2401 reporting.
  Task      639 on host vipc2401 reporting.
  Task      640 on host vipc2412 reporting.
  Task      641 on host vipc2412 reporting.
  Task      642 on host vipc2412 reporting.
  Task      643 on host vipc2412 reporting.
  Task      644 on host vipc2412 reporting.
  Task      645 on host vipc2412 reporting.
  Task      646 on host vipc2412 reporting.
  Task      647 on host vipc2412 reporting.
  Task      648 on host vipc2412 reporting.
  Task      649 on host vipc2412 reporting.
  Task      650 on host vipc2412 reporting.
  Task      651 on host vipc2412 reporting.
  Task      652 on host vipc2412 reporting.
  Task      653 on host vipc2412 reporting.
  Task      654 on host vipc2412 reporting.
  Task      655 on host vipc2412 reporting.
  Task      656 on host vipc2412 reporting.
  Task      657 on host vipc2412 reporting.
  Task      658 on host vipc2412 reporting.
  Task      659 on host vipc2412 reporting.
  Task      660 on host vipc2412 reporting.
  Task      661 on host vipc2412 reporting.
  Task      662 on host vipc2412 reporting.
  Task      663 on host vipc2412 reporting.
  Task      664 on host vipc2412 reporting.
  Task      665 on host vipc2412 reporting.
  Task      666 on host vipc2412 reporting.
  Task      667 on host vipc2412 reporting.
  Task      668 on host vipc2412 reporting.
  Task      669 on host vipc2412 reporting.
  Task      670 on host vipc2412 reporting.
  Task      671 on host vipc2412 reporting.
  Task      672 on host vipc2412 reporting.
  Task      673 on host vipc2412 reporting.
  Task      674 on host vipc2412 reporting.
  Task      675 on host vipc2412 reporting.
  Task      676 on host vipc2412 reporting.
  Task      677 on host vipc2412 reporting.
  Task      678 on host vipc2412 reporting.
  Task      679 on host vipc2412 reporting.
  Task      680 on host vipc2412 reporting.
  Task      681 on host vipc2412 reporting.
  Task      682 on host vipc2412 reporting.
  Task      683 on host vipc2412 reporting.
  Task      684 on host vipc2412 reporting.
  Task      685 on host vipc2412 reporting.
  Task      686 on host vipc2412 reporting.
  Task      687 on host vipc2412 reporting.
  Task      688 on host vipc2412 reporting.
  Task      689 on host vipc2412 reporting.
  Task      690 on host vipc2412 reporting.
  Task      691 on host vipc2412 reporting.
  Task      692 on host vipc2412 reporting.
  Task      693 on host vipc2412 reporting.
  Task      694 on host vipc2412 reporting.
  Task      695 on host vipc2412 reporting.
  Task      696 on host vipc2412 reporting.
  Task      697 on host vipc2412 reporting.
  Task      698 on host vipc2412 reporting.
  Task      699 on host vipc2412 reporting.
  Task      700 on host vipc2412 reporting.
  Task      701 on host vipc2412 reporting.
  Task      702 on host vipc2412 reporting.
  Task      703 on host vipc2412 reporting.
  Task      704 on host vipc2412 reporting.
  Task      705 on host vipc2412 reporting.
  Task      706 on host vipc2412 reporting.
  Task      707 on host vipc2412 reporting.
  Task      708 on host vipc2412 reporting.
  Task      709 on host vipc2412 reporting.
  Task      710 on host vipc2412 reporting.
  Task      711 on host vipc2412 reporting.
  Task      712 on host vipc2412 reporting.
  Task      713 on host vipc2412 reporting.
  Task      714 on host vipc2412 reporting.
  Task      715 on host vipc2412 reporting.
  Task      716 on host vipc2412 reporting.
  Task      717 on host vipc2412 reporting.
  Task      718 on host vipc2412 reporting.
  Task      719 on host vipc2412 reporting.
  Task      720 on host vipc2412 reporting.
  Task      721 on host vipc2412 reporting.
  Task      722 on host vipc2412 reporting.
  Task      723 on host vipc2412 reporting.
  Task      724 on host vipc2412 reporting.
  Task      725 on host vipc2412 reporting.
  Task      726 on host vipc2412 reporting.
  Task      727 on host vipc2412 reporting.
  Task      728 on host vipc2412 reporting.
  Task      729 on host vipc2412 reporting.
  Task      730 on host vipc2412 reporting.
  Task      731 on host vipc2412 reporting.
  Task      732 on host vipc2412 reporting.
  Task      733 on host vipc2412 reporting.
  Task      734 on host vipc2412 reporting.
  Task      735 on host vipc2412 reporting.
  Task      736 on host vipc2412 reporting.
  Task      737 on host vipc2412 reporting.
  Task      738 on host vipc2412 reporting.
  Task      739 on host vipc2412 reporting.
  Task      740 on host vipc2412 reporting.
  Task      741 on host vipc2412 reporting.
  Task      742 on host vipc2412 reporting.
  Task      743 on host vipc2412 reporting.
  Task      744 on host vipc2412 reporting.
  Task      745 on host vipc2412 reporting.
  Task      746 on host vipc2412 reporting.
  Task      747 on host vipc2412 reporting.
  Task      748 on host vipc2412 reporting.
  Task      749 on host vipc2412 reporting.
  Task      750 on host vipc2412 reporting.
  Task      751 on host vipc2412 reporting.
  Task      752 on host vipc2412 reporting.
  Task      753 on host vipc2412 reporting.
  Task      754 on host vipc2412 reporting.
  Task      755 on host vipc2412 reporting.
  Task      756 on host vipc2412 reporting.
  Task      757 on host vipc2412 reporting.
  Task      758 on host vipc2412 reporting.
  Task      759 on host vipc2412 reporting.
  Task      760 on host vipc2412 reporting.
  Task      761 on host vipc2412 reporting.
  Task      762 on host vipc2412 reporting.
  Task      763 on host vipc2412 reporting.
  Task      764 on host vipc2412 reporting.
  Task      765 on host vipc2412 reporting.
  Task      766 on host vipc2412 reporting.
  Task      767 on host vipc2412 reporting.
  Task      768 on host vipc2425 reporting.
  Task      769 on host vipc2425 reporting.
  Task      770 on host vipc2425 reporting.
  Task      771 on host vipc2425 reporting.
  Task      772 on host vipc2425 reporting.
  Task      773 on host vipc2425 reporting.
  Task      774 on host vipc2425 reporting.
  Task      775 on host vipc2425 reporting.
  Task      776 on host vipc2425 reporting.
  Task      777 on host vipc2425 reporting.
  Task      778 on host vipc2425 reporting.
  Task      779 on host vipc2425 reporting.
  Task      780 on host vipc2425 reporting.
  Task      781 on host vipc2425 reporting.
  Task      782 on host vipc2425 reporting.
  Task      783 on host vipc2425 reporting.
  Task      784 on host vipc2425 reporting.
  Task      785 on host vipc2425 reporting.
  Task      786 on host vipc2425 reporting.
  Task      787 on host vipc2425 reporting.
  Task      788 on host vipc2425 reporting.
  Task      789 on host vipc2425 reporting.
  Task      790 on host vipc2425 reporting.
  Task      791 on host vipc2425 reporting.
  Task      792 on host vipc2425 reporting.
  Task      793 on host vipc2425 reporting.
  Task      794 on host vipc2425 reporting.
  Task      795 on host vipc2425 reporting.
  Task      796 on host vipc2425 reporting.
  Task      797 on host vipc2425 reporting.
  Task      798 on host vipc2425 reporting.
  Task      799 on host vipc2425 reporting.
  Task      800 on host vipc2425 reporting.
  Task      801 on host vipc2425 reporting.
  Task      802 on host vipc2425 reporting.
  Task      803 on host vipc2425 reporting.
  Task      804 on host vipc2425 reporting.
  Task      805 on host vipc2425 reporting.
  Task      806 on host vipc2425 reporting.
  Task      807 on host vipc2425 reporting.
  Task      808 on host vipc2425 reporting.
  Task      809 on host vipc2425 reporting.
  Task      810 on host vipc2425 reporting.
  Task      811 on host vipc2425 reporting.
  Task      812 on host vipc2425 reporting.
  Task      813 on host vipc2425 reporting.
  Task      814 on host vipc2425 reporting.
  Task      815 on host vipc2425 reporting.
  Task      816 on host vipc2425 reporting.
  Task      817 on host vipc2425 reporting.
  Task      818 on host vipc2425 reporting.
  Task      819 on host vipc2425 reporting.
  Task      820 on host vipc2425 reporting.
  Task      821 on host vipc2425 reporting.
  Task      822 on host vipc2425 reporting.
  Task      823 on host vipc2425 reporting.
  Task      824 on host vipc2425 reporting.
  Task      825 on host vipc2425 reporting.
  Task      826 on host vipc2425 reporting.
  Task      827 on host vipc2425 reporting.
  Task      828 on host vipc2425 reporting.
  Task      829 on host vipc2425 reporting.
  Task      830 on host vipc2425 reporting.
  Task      831 on host vipc2425 reporting.
  Task      832 on host vipc2425 reporting.
  Task      833 on host vipc2425 reporting.
  Task      834 on host vipc2425 reporting.
  Task      835 on host vipc2425 reporting.
  Task      836 on host vipc2425 reporting.
  Task      837 on host vipc2425 reporting.
  Task      838 on host vipc2425 reporting.
  Task      839 on host vipc2425 reporting.
  Task      840 on host vipc2425 reporting.
  Task      841 on host vipc2425 reporting.
  Task      842 on host vipc2425 reporting.
  Task      843 on host vipc2425 reporting.
  Task      844 on host vipc2425 reporting.
  Task      845 on host vipc2425 reporting.
  Task      846 on host vipc2425 reporting.
  Task      847 on host vipc2425 reporting.
  Task      848 on host vipc2425 reporting.
  Task      849 on host vipc2425 reporting.
  Task      850 on host vipc2425 reporting.
  Task      851 on host vipc2425 reporting.
  Task      852 on host vipc2425 reporting.
  Task      853 on host vipc2425 reporting.
  Task      854 on host vipc2425 reporting.
  Task      855 on host vipc2425 reporting.
  Task      856 on host vipc2425 reporting.
  Task      857 on host vipc2425 reporting.
  Task      858 on host vipc2425 reporting.
  Task      859 on host vipc2425 reporting.
  Task      860 on host vipc2425 reporting.
  Task      861 on host vipc2425 reporting.
  Task      862 on host vipc2425 reporting.
  Task      863 on host vipc2425 reporting.
  Task      864 on host vipc2425 reporting.
  Task      865 on host vipc2425 reporting.
  Task      866 on host vipc2425 reporting.
  Task      867 on host vipc2425 reporting.
  Task      868 on host vipc2425 reporting.
  Task      869 on host vipc2425 reporting.
  Task      870 on host vipc2425 reporting.
  Task      871 on host vipc2425 reporting.
  Task      872 on host vipc2425 reporting.
  Task      873 on host vipc2425 reporting.
  Task      874 on host vipc2425 reporting.
  Task      875 on host vipc2425 reporting.
  Task      876 on host vipc2425 reporting.
  Task      877 on host vipc2425 reporting.
  Task      878 on host vipc2425 reporting.
  Task      879 on host vipc2425 reporting.
  Task      880 on host vipc2425 reporting.
  Task      881 on host vipc2425 reporting.
  Task      882 on host vipc2425 reporting.
  Task      883 on host vipc2425 reporting.
  Task      884 on host vipc2425 reporting.
  Task      885 on host vipc2425 reporting.
  Task      886 on host vipc2425 reporting.
  Task      887 on host vipc2425 reporting.
  Task      888 on host vipc2425 reporting.
  Task      889 on host vipc2425 reporting.
  Task      890 on host vipc2425 reporting.
  Task      891 on host vipc2425 reporting.
  Task      892 on host vipc2425 reporting.
  Task      893 on host vipc2425 reporting.
  Task      894 on host vipc2425 reporting.
  Task      895 on host vipc2425 reporting.
  Task      896 on host vipc2429 reporting.
  Task      897 on host vipc2429 reporting.
  Task      898 on host vipc2429 reporting.
  Task      899 on host vipc2429 reporting.
  Task      900 on host vipc2429 reporting.
  Task      901 on host vipc2429 reporting.
  Task      902 on host vipc2429 reporting.
  Task      903 on host vipc2429 reporting.
  Task      904 on host vipc2429 reporting.
  Task      905 on host vipc2429 reporting.
  Task      906 on host vipc2429 reporting.
  Task      907 on host vipc2429 reporting.
  Task      908 on host vipc2429 reporting.
  Task      909 on host vipc2429 reporting.
  Task      910 on host vipc2429 reporting.
  Task      911 on host vipc2429 reporting.
  Task      912 on host vipc2429 reporting.
  Task      913 on host vipc2429 reporting.
  Task      914 on host vipc2429 reporting.
  Task      915 on host vipc2429 reporting.
  Task      916 on host vipc2429 reporting.
  Task      917 on host vipc2429 reporting.
  Task      918 on host vipc2429 reporting.
  Task      919 on host vipc2429 reporting.
  Task      920 on host vipc2429 reporting.
  Task      921 on host vipc2429 reporting.
  Task      922 on host vipc2429 reporting.
  Task      923 on host vipc2429 reporting.
  Task      924 on host vipc2429 reporting.
  Task      925 on host vipc2429 reporting.
  Task      926 on host vipc2429 reporting.
  Task      927 on host vipc2429 reporting.
  Task      928 on host vipc2429 reporting.
  Task      929 on host vipc2429 reporting.
  Task      930 on host vipc2429 reporting.
  Task      931 on host vipc2429 reporting.
  Task      932 on host vipc2429 reporting.
  Task      933 on host vipc2429 reporting.
  Task      934 on host vipc2429 reporting.
  Task      935 on host vipc2429 reporting.
  Task      936 on host vipc2429 reporting.
  Task      937 on host vipc2429 reporting.
  Task      938 on host vipc2429 reporting.
  Task      939 on host vipc2429 reporting.
  Task      940 on host vipc2429 reporting.
  Task      941 on host vipc2429 reporting.
  Task      942 on host vipc2429 reporting.
  Task      943 on host vipc2429 reporting.
  Task      944 on host vipc2429 reporting.
  Task      945 on host vipc2429 reporting.
  Task      946 on host vipc2429 reporting.
  Task      947 on host vipc2429 reporting.
  Task      948 on host vipc2429 reporting.
  Task      949 on host vipc2429 reporting.
  Task      950 on host vipc2429 reporting.
  Task      951 on host vipc2429 reporting.
  Task      952 on host vipc2429 reporting.
  Task      953 on host vipc2429 reporting.
  Task      954 on host vipc2429 reporting.
  Task      955 on host vipc2429 reporting.
  Task      956 on host vipc2429 reporting.
  Task      957 on host vipc2429 reporting.
  Task      958 on host vipc2429 reporting.
  Task      959 on host vipc2429 reporting.
  Task      960 on host vipc2429 reporting.
  Task      961 on host vipc2429 reporting.
  Task      962 on host vipc2429 reporting.
  Task      963 on host vipc2429 reporting.
  Task      964 on host vipc2429 reporting.
  Task      965 on host vipc2429 reporting.
  Task      966 on host vipc2429 reporting.
  Task      967 on host vipc2429 reporting.
  Task      968 on host vipc2429 reporting.
  Task      969 on host vipc2429 reporting.
  Task      970 on host vipc2429 reporting.
  Task      971 on host vipc2429 reporting.
  Task      972 on host vipc2429 reporting.
  Task      973 on host vipc2429 reporting.
  Task      974 on host vipc2429 reporting.
  Task      975 on host vipc2429 reporting.
  Task      976 on host vipc2429 reporting.
  Task      977 on host vipc2429 reporting.
  Task      978 on host vipc2429 reporting.
  Task      979 on host vipc2429 reporting.
  Task      980 on host vipc2429 reporting.
  Task      981 on host vipc2429 reporting.
  Task      982 on host vipc2429 reporting.
  Task      983 on host vipc2429 reporting.
  Task      984 on host vipc2429 reporting.
  Task      985 on host vipc2429 reporting.
  Task      986 on host vipc2429 reporting.
  Task      987 on host vipc2429 reporting.
  Task      988 on host vipc2429 reporting.
  Task      989 on host vipc2429 reporting.
  Task      990 on host vipc2429 reporting.
  Task      991 on host vipc2429 reporting.
  Task      992 on host vipc2429 reporting.
  Task      993 on host vipc2429 reporting.
  Task      994 on host vipc2429 reporting.
  Task      995 on host vipc2429 reporting.
  Task      996 on host vipc2429 reporting.
  Task      997 on host vipc2429 reporting.
  Task      998 on host vipc2429 reporting.
  Task      999 on host vipc2429 reporting.
  Task     1000 on host vipc2429 reporting.
  Task     1001 on host vipc2429 reporting.
  Task     1002 on host vipc2429 reporting.
  Task     1003 on host vipc2429 reporting.
  Task     1004 on host vipc2429 reporting.
  Task     1005 on host vipc2429 reporting.
  Task     1006 on host vipc2429 reporting.
  Task     1007 on host vipc2429 reporting.
  Task     1008 on host vipc2429 reporting.
  Task     1009 on host vipc2429 reporting.
  Task     1010 on host vipc2429 reporting.
  Task     1011 on host vipc2429 reporting.
  Task     1012 on host vipc2429 reporting.
  Task     1013 on host vipc2429 reporting.
  Task     1014 on host vipc2429 reporting.
  Task     1015 on host vipc2429 reporting.
  Task     1016 on host vipc2429 reporting.
  Task     1017 on host vipc2429 reporting.
  Task     1018 on host vipc2429 reporting.
  Task     1019 on host vipc2429 reporting.
  Task     1020 on host vipc2429 reporting.
  Task     1021 on host vipc2429 reporting.
  Task     1022 on host vipc2429 reporting.
  Task     1023 on host vipc2429 reporting.

  Obtaining array dimensions for all initial allocations:
  
  -----------------------------------------------------------------------
  Parsing control.in (first pass over file, find array dimensions only).
  The contents of control.in will be repeated verbatim below
  unless switched off by setting 'verbatim_writeout .false.' .
  in the first line of control.in .
  -----------------------------------------------------------------------
  
  xc                                 pbe
  relativistic                       atomic_zora scalar
  spin                               none
  k_grid				   1 1 1
  vdw_correction_hirshfeld           .true.
  output_level                       MD_light
  sc_accuracy_rho                    1e-07
  output                             dipole
  pos_tip_origin          -0.000030 -1.696604 -4.614000
  pos_sys_origin          0.000000 0.000000 0.000000
  tip_molecule_distance   4.000000
  rel_shift_from_tip      -3.180000 -5.507927
  nearfield_derivative    tipA_05_vh_ft_0049_3221meV_x1000.cube
  ################################################################################
  #
  #  FHI-aims code project
  #  VB, Fritz-Haber Institut, 2009
  #
  #  Suggested "light" defaults for Mo atom (to be pasted into control.in file)
  #  Be sure to double-check any results obtained with these settings for post-processing,
  #  e.g., with the "tight" defaults and larger basis sets.
  #
  ################################################################################
    species        Mo
  #     global species definitions
      nucleus             42
      mass                95.94
  #
      l_hartree           4
  #
      cut_pot             3.5  1.5  1.0
      basis_dep_cutoff    1e-4
  #
      radial_base         59 5.0
      radial_multiplier   1
      angular_grids specified
        division   0.4847   50
        division   0.9168  110
        division   1.2280  194
        division   1.6402  302
  #      division   1.8849  434
  #      division   2.0237  590
  #      division   2.0980  974
  #      division   2.7405 1202
  #      outer_grid  974
        outer_grid  302
  ################################################################################
  #
  #  Definition of "minimal" basis
  #
  ################################################################################
  #     valence basis states
      valence      5  s   1.
      valence      4  p   6.
      valence      4  d   5.
  #     ion occupancy
      ion_occ     5  s   0.
      ion_occ     4  p   6.
      ion_occ     4  d   4.
  ################################################################################
  #
  #  Suggested additional basis functions. For production calculations,
  #  uncomment them one after another (the most important basis functions are
  #  listed first).
  #
  #  Constructed for dimers: 1.675 A, 1.9 A, 2.375 A, 3.00 A, 4.00 A
  #
  ################################################################################
  #  "First tier"  - max. impr. -711.23  meV, min. impr. -21.07 meV
       hydro 4 f 8.4
       hydro 3 d 2.8
       ionic 5 p auto
  #     hydro 5 g 12
       ionic 5 s auto
  #  "Second tier" - max. impr. -39.38  meV, min. impr. -2.68 meV
  #     hydro 4 f 12.4
  #     hydro 3 d 3.3
  #     hydro 6 h 17.2
  #     hydro 4 f 7.6
  #     hydro 3 p 3.0
  #     hydro 1 s 0.65
  #  "Third tier"  - max. impr. -5.50 meV, min. impr. -0.47 meV
  #     hydro 4 f 29.2
  #     hydro 5 g 11.2
  #     hydro 3 d 6.8
  #     hydro 6 h 14.8
  #     hydro 2 p 2.3
  #     hydro 4 s 3.8
  #  "Fourth tier"  - max. impr. -0.58 meV, min. impr. -0.19 meV
  #     hydro 5 f 6.8
  #     hydro 5 d 14.8
  #     hydro 6 s 7.8
  #     hydro 5 g 20.8
  #     hydro 5 d 10.4
  #     hydro 5 p 9.8
  #  Further functions - -0.17 meV and below
  #     hydro 5 d 3.2
  ################################################################################
  #
  #  FHI-aims code project
  #  VB, Fritz-Haber Institut, 2009
  #
  #  Suggested "light" defaults for S atom (to be pasted into control.in file)
  #  Be sure to double-check any results obtained with these settings for post-processing,
  #  e.g., with the "tight" defaults and larger basis sets.
  #
  #  2020/09/08 Added f function to "light" after reinspection of Delta test outcomes.
  #             This was done for all of Al-Cl and is a tricky decision since it makes
  #             "light" calculations measurably more expensive for these elements.
  #             Nevertheless, outcomes for P, S, Cl (and to some extent, Si) appear
  #             to justify this choice.
  #
  ################################################################################
    species        S
  #     global species definitions
      nucleus             16
      mass                32.065
  #
      l_hartree           4
  #
      cut_pot             3.5          1.5  1.0
      basis_dep_cutoff    1e-4
  #
      radial_base         44 5.0
      radial_multiplier   1
      angular_grids       specified
        division   0.4665  110
        division   0.5810  194
        division   0.7139  302
  #      division   0.8274  434
  #      division   0.9105  590
  #      division   1.0975  770
  #      division   1.2028  974
  #      outer_grid  974
        outer_grid  302
  ################################################################################
  #
  #  Definition of "minimal" basis
  #
  ################################################################################
  #     valence basis states
      valence      3  s   2.
      valence      3  p   4.
  #     ion occupancy
      ion_occ      3  s   1.
      ion_occ      3  p   3.
  ################################################################################
  #
  #  Suggested additional basis functions. For production calculations,
  #  uncomment them one after another (the most important basis functions are
  #  listed first).
  #
  #  Constructed for dimers: 1.6 A, 1.9 A, 2.5 A, 3.25 A, 4.0 A
  #
  ################################################################################
  #  "First tier" - improvements: -652.81 meV to -45.53 meV
       ionic 3 d auto
       hydro 2 p 1.8
       hydro 4 f 7
       ionic 3 s auto
  #  "Second tier" - improvements: -30.20 meV to -1.74 meV
  #     hydro 4 d 6.2
  #     hydro 5 g 10.8
  #     hydro 4 p 4.9
  #     hydro 5 f 10
  #     hydro 1 s 0.8
  #  "Third tier" - improvements: -1.04 meV to -0.20 meV
  #     hydro 3 d 3.9
  #     hydro 3 d 2.7
  #     hydro 5 g 12
  #     hydro 4 p 10.4
  #     hydro 5 f 12.4
  #     hydro 2 s 1.9
  #  "Fourth tier" - improvements: -0.35 meV to -0.06 meV
  #     hydro 4 d 10.4
  #     hydro 4 p 7.2
  #     hydro 4 d 10
  #     hydro 5 g 19.2
  #     hydro 4 s 12
  
  
  -----------------------------------------------------------------------
  Completed first pass over input file control.in .
  -----------------------------------------------------------------------
  
  
  -----------------------------------------------------------------------
  Parsing geometry.in (first pass over file, find array dimensions only).
  The contents of geometry.in will be repeated verbatim below
  unless switched off by setting 'verbatim_writeout .false.' .
  in the first line of geometry.in .
  -----------------------------------------------------------------------
  
  lattice_vector 34.9799999999999969 0.0000000000000000 0.0000000000000000
  lattice_vector -17.4899999999999878 30.2935686243796631 0.0000000000000000
  lattice_vector 0.0000000000000000 0.0000000000000000 100.0000000000000000
  atom -9.5399999904568169 -14.6880005694361131 -1.5950000004537834 Mo
  atom -7.9500000130808530 -13.7699992008121264 -0.0003214072053747 S
  atom -7.9500000115715759 -13.7699991394403458 -3.1896785855095624 S
  atom -11.1299999904568168 -11.9340005694361135 -1.5950000004537834 Mo
  atom -9.5400000130808529 -11.0159992008121250 -0.0003214072053747 S
  atom -9.5400000115715748 -11.0159991394403445 -3.1896785855095624 S
  atom -12.7199999904568166 -9.1800005694361122 -1.5950000004537834 Mo
  atom -11.1300000130808527 -8.2619992008121255 -0.0003214072053747 S
  atom -11.1300000115715747 -8.2619991394403449 -3.1896785855095624 S
  atom -14.3099999904568165 -6.4260005694361135 -1.5950000004537834 Mo
  atom -12.7200000130808526 -5.5079992008121268 -0.0003214072053747 S
  atom -12.7200000115715746 -5.5079991394403462 -3.1896785855095624 S
  atom -15.8999999904568163 -3.6720005694361140 -1.5950000004537834 Mo
  atom -14.3100000130808525 -2.7539992008121268 -0.0003214072053747 S
  atom -14.3100000115715744 -2.7539991394403467 -3.1896785855095624 S
  atom -17.4899999904568162 -0.9180005694361144 -1.5950000004537834 Mo
  atom -15.9000000130808523 0.0000007991878744 -0.0003214072053747 S
  atom -15.9000000115715743 0.0000008605596548 -3.1896785855095624 S
  atom -19.0799999904568161 1.8359994305638869 -1.5950000004537834 Mo
  atom -17.4900000130808522 2.7540007991878741 -0.0003214072053747 S
  atom -17.4900000115715741 2.7540008605596542 -3.1896785855095624 S
  atom -20.6699999904568195 4.5899994305638847 -1.5950000004537834 Mo
  atom -19.0800000130808520 5.5080007991878750 -0.0003214072053747 S
  atom -19.0800000115715740 5.5080008605596555 -3.1896785855095624 S
  atom -22.2599999904568158 7.3439994305638860 -1.5950000004537834 Mo
  atom -20.6700000130808554 8.2620007991878737 -0.0003214072053747 S
  atom -20.6700000115715774 8.2620008605596542 -3.1896785855095624 S
  atom -23.8499999904568192 10.0979994305638883 -1.5950000004537834 Mo
  atom -22.2600000130808517 11.0160007991878750 -0.0003214072053747 S
  atom -22.2600000115715737 11.0160008605596555 -3.1896785855095624 S
  atom -25.4399999904568155 12.8519994305638861 -1.5950000004537834 Mo
  atom -23.8500000130808552 13.7700007991878728 -0.0003214072053747 S
  atom -23.8500000115715771 13.7700008605596533 -3.1896785855095624 S
  atom -6.3599999904568172 -14.6880005694361131 -1.5950000004537834 Mo
  atom -4.7700000130808533 -13.7699992008121264 -0.0003214072053747 S
  atom -4.7700000115715762 -13.7699991394403458 -3.1896785855095624 S
  atom -7.9499999904568170 -11.9340005694361135 -1.5950000004537834 Mo
  atom -6.3600000130808532 -11.0159992008121250 -0.0003214072053747 S
  atom -6.3600000115715760 -11.0159991394403445 -3.1896785855095624 S
  atom -9.5399999904568169 -9.1800005694361122 -1.5950000004537834 Mo
  atom -7.9500000130808530 -8.2619992008121255 -0.0003214072053747 S
  atom -7.9500000115715759 -8.2619991394403449 -3.1896785855095624 S
  atom -11.1299999904568168 -6.4260005694361135 -1.5950000004537834 Mo
  atom -9.5400000130808529 -5.5079992008121268 -0.0003214072053747 S
  atom -9.5400000115715748 -5.5079991394403462 -3.1896785855095624 S
  atom -12.7199999904568166 -3.6720005694361140 -1.5950000004537834 Mo
  atom -11.1300000130808527 -2.7539992008121268 -0.0003214072053747 S
  atom -11.1300000115715747 -2.7539991394403467 -3.1896785855095624 S
  atom -14.3099999904568165 -0.9180005694361144 -1.5950000004537834 Mo
  atom -12.7200000130808526 0.0000007991878744 -0.0003214072053747 S
  atom -12.7200000115715746 0.0000008605596548 -3.1896785855095624 S
  atom -15.8999999904568163 1.8359994305638869 -1.5950000004537834 Mo
  atom -14.3100000130808525 2.7540007991878741 -0.0003214072053747 S
  atom -14.3100000115715744 2.7540008605596542 -3.1896785855095624 S
  atom -17.4899999904568162 4.5899994305638847 -1.5950000004537834 Mo
  atom -15.9000000130808523 5.5080007991878750 -0.0003214072053747 S
  atom -15.9000000115715743 5.5080008605596555 -3.1896785855095624 S
  atom -19.0799999904568161 7.3439994305638860 -1.5950000004537834 Mo
  atom -17.4900000130808522 8.2620007991878737 -0.0003214072053747 S
  atom -17.4900000115715741 8.2620008605596542 -3.1896785855095624 S
  atom -20.6699999904568195 10.0979994305638883 -1.5950000004537834 Mo
  atom -19.0800000130808520 11.0160007991878750 -0.0003214072053747 S
  atom -19.0800000115715740 11.0160008605596555 -3.1896785855095624 S
  atom -22.2599999904568158 12.8519994305638861 -1.5950000004537834 Mo
  atom -20.6700000130808554 13.7700007991878728 -0.0003214072053747 S
  atom -20.6700000115715774 13.7700008605596533 -3.1896785855095624 S
  atom -3.1799999904568161 -14.6880005694361131 -1.5950000004537834 Mo
  atom -1.5900000130808531 -13.7699992008121264 -0.0003214072053747 S
  atom -1.5900000115715753 -13.7699991394403458 -3.1896785855095624 S
  atom -4.7699999904568173 -11.9340005694361135 -1.5950000004537834 Mo
  atom -3.1800000130808530 -11.0159992008121250 -0.0003214072053747 S
  atom -3.1800000115715754 -11.0159991394403445 -3.1896785855095624 S
  atom -6.3599999904568172 -9.1800005694361122 -1.5950000004537834 Mo
  atom -4.7700000130808533 -8.2619992008121255 -0.0003214072053747 S
  atom -4.7700000115715762 -8.2619991394403449 -3.1896785855095624 S
  atom -7.9499999904568170 -6.4260005694361135 -1.5950000004537834 Mo
  atom -6.3600000130808532 -5.5079992008121268 -0.0003214072053747 S
  atom -6.3600000115715760 -5.5079991394403462 -3.1896785855095624 S
  atom -9.5399999904568169 -3.6720005694361140 -1.5950000004537834 Mo
  atom -7.9500000130808530 -2.7539992008121268 -0.0003214072053747 S
  atom -7.9500000115715759 -2.7539991394403467 -3.1896785855095624 S
  atom -11.1299999904568168 -0.9180005694361144 -1.5950000004537834 Mo
  atom -9.5400000130808529 0.0000007991878744 -0.0003214072053747 S
  atom -9.5400000115715748 0.0000008605596548 -3.1896785855095624 S
  atom -12.7199999904568166 1.8359994305638869 -1.5950000004537834 Mo
  atom -11.1300000130808527 2.7540007991878741 -0.0003214072053747 S
  atom -11.1300000115715747 2.7540008605596542 -3.1896785855095624 S
  atom -14.3099999904568165 4.5899994305638847 -1.5950000004537834 Mo
  atom -12.7200000130808526 5.5080007991878750 -0.0003214072053747 S
  atom -12.7200000115715746 5.5080008605596555 -3.1896785855095624 S
  atom -15.8999999904568163 7.3439994305638860 -1.5950000004537834 Mo
  atom -14.3100000130808525 8.2620007991878737 -0.0003214072053747 S
  atom -14.3100000115715744 8.2620008605596542 -3.1896785855095624 S
  atom -17.4899999904568162 10.0979994305638883 -1.5950000004537834 Mo
  atom -15.9000000130808523 11.0160007991878750 -0.0003214072053747 S
  atom -15.9000000115715743 11.0160008605596555 -3.1896785855095624 S
  atom -19.0799999904568161 12.8519994305638861 -1.5950000004537834 Mo
  atom -17.4900000130808522 13.7700007991878728 -0.0003214072053747 S
  atom -17.4900000115715741 13.7700008605596533 -3.1896785855095624 S
  atom 0.0000000095431826 -14.6880005694361131 -1.5950000004537834 Mo
  atom 1.5899999869191475 -13.7699992008121264 -0.0003214072053747 S
  atom 1.5899999884284253 -13.7699991394403458 -3.1896785855095624 S
  atom -1.5899999904568165 -11.9340005694361135 -1.5950000004537834 Mo
  atom -0.0000000130808541 -11.0159992008121250 -0.0003214072053747 S
  atom -0.0000000115715765 -11.0159991394403445 -3.1896785855095624 S
  atom -3.1799999904568161 -9.1800005694361122 -1.5950000004537834 Mo
  atom -1.5900000130808531 -8.2619992008121255 -0.0003214072053747 S
  atom -1.5900000115715753 -8.2619991394403449 -3.1896785855095624 S
  atom -4.7699999904568173 -6.4260005694361135 -1.5950000004537834 Mo
  atom -3.1800000130808530 -5.5079992008121268 -0.0003214072053747 S
  atom -3.1800000115715754 -5.5079991394403462 -3.1896785855095624 S
  atom -6.3599999904568172 -3.6720005694361140 -1.5950000004537834 Mo
  atom -4.7700000130808533 -2.7539992008121268 -0.0003214072053747 S
  atom -4.7700000115715762 -2.7539991394403467 -3.1896785855095624 S
  atom -7.9499999904568170 -0.9180005694361144 -1.5950000004537834 Mo
  atom -6.3600000130808532 0.0000007991878744 -0.0003214072053747 S
  atom -6.3600000115715760 0.0000008605596548 -3.1896785855095624 S
  atom -9.5399999904568169 1.8359994305638869 -1.5950000004537834 Mo
  atom -7.9500000130808530 2.7540007991878741 -0.0003214072053747 S
  atom -7.9500000115715759 2.7540008605596542 -3.1896785855095624 S
  atom -11.1299999904568168 4.5899994305638847 -1.5950000004537834 Mo
  atom -9.5400000130808529 5.5080007991878750 -0.0003214072053747 S
  atom -9.5400000115715748 5.5080008605596555 -3.1896785855095624 S
  atom -12.7199999904568166 7.3439994305638860 -1.5950000004537834 Mo
  atom -11.1300000130808527 8.2620007991878737 -0.0003214072053747 S
  atom -11.1300000115715747 8.2620008605596542 -3.1896785855095624 S
  atom -14.3099999904568165 10.0979994305638883 -1.5950000004537834 Mo
  atom -12.7200000130808526 11.0160007991878750 -0.0003214072053747 S
  atom -12.7200000115715746 11.0160008605596555 -3.1896785855095624 S
  atom -15.8999999904568163 12.8519994305638861 -1.5950000004537834 Mo
  atom -14.3100000130808525 13.7700007991878728 -0.0003214072053747 S
  atom -14.3100000115715744 13.7700008605596533 -3.1896785855095624 S
  atom 3.1800000095431842 -14.6880005694361131 -1.5950000004537834 Mo
  atom 4.7699999869191476 -13.7699992008121264 -0.0003214072053747 S
  atom 4.7699999884284248 -13.7699991394403458 -3.1896785855095624 S
  atom 1.5900000095431841 -11.9340005694361135 -1.5950000004537834 Mo
  atom 3.1799999869191473 -11.0159992008121250 -0.0003214072053747 S
  atom 3.1799999884284249 -11.0159991394403445 -3.1896785855095624 S
  atom 0.0000000095431826 -9.1800005694361122 -1.5950000004537834 Mo
  atom 1.5899999869191475 -8.2619992008121255 -0.0003214072053747 S
  atom 1.5899999884284253 -8.2619991394403449 -3.1896785855095624 S
  atom -1.5899999904568165 -6.4260005694361135 -1.5950000004537834 Mo
  atom -0.0000000130808541 -5.5079992008121268 -0.0003214072053747 S
  atom -0.0000000115715765 -5.5079991394403462 -3.1896785855095624 S
  atom -3.1799999904568161 -3.6720005694361140 -1.5950000004537834 Mo
  atom -1.5900000130808531 -2.7539992008121268 -0.0003214072053747 S
  atom -1.5900000115715753 -2.7539991394403467 -3.1896785855095624 S
  atom -4.7699999904568173 -0.9180005694361144 -1.5950000004537834 Mo
  atom -3.1800000130808530 0.0000007991878744 -0.0003214072053747 S
  atom -3.1800000115715754 0.0000008605596548 -3.1896785855095624 S
  atom -6.3599999904568172 1.8359994305638869 -1.5950000004537834 Mo
  atom -4.7700000130808533 2.7540007991878741 -0.0003214072053747 S
  atom -4.7700000115715762 2.7540008605596542 -3.1896785855095624 S
  atom -7.9499999904568170 4.5899994305638847 -1.5950000004537834 Mo
  atom -6.3600000130808532 5.5080007991878750 -0.0003214072053747 S
  atom -6.3600000115715760 5.5080008605596555 -3.1896785855095624 S
  atom -9.5399999904568169 7.3439994305638860 -1.5950000004537834 Mo
  atom -7.9500000130808530 8.2620007991878737 -0.0003214072053747 S
  atom -7.9500000115715759 8.2620008605596542 -3.1896785855095624 S
  atom -11.1299999904568168 10.0979994305638883 -1.5950000004537834 Mo
  atom -9.5400000130808529 11.0160007991878750 -0.0003214072053747 S
  atom -9.5400000115715748 11.0160008605596555 -3.1896785855095624 S
  atom -12.7199999904568166 12.8519994305638861 -1.5950000004537834 Mo
  atom -11.1300000130808527 13.7700007991878728 -0.0003214072053747 S
  atom -11.1300000115715747 13.7700008605596533 -3.1896785855095624 S
  atom 6.3600000095431835 -14.6880005694361131 -1.5950000004537834 Mo
  atom 7.9499999869191456 -13.7699992008121264 -0.0003214072053747 S
  atom 7.9499999884284227 -13.7699991394403458 -3.1896785855095624 S
  atom 4.7700000095431836 -11.9340005694361135 -1.5950000004537834 Mo
  atom 6.3599999869191475 -11.0159992008121250 -0.0003214072053747 S
  atom 6.3599999884284246 -11.0159991394403445 -3.1896785855095624 S
  atom 3.1800000095431842 -9.1800005694361122 -1.5950000004537834 Mo
  atom 4.7699999869191476 -8.2619992008121255 -0.0003214072053747 S
  atom 4.7699999884284248 -8.2619991394403449 -3.1896785855095624 S
  atom 1.5900000095431841 -6.4260005694361135 -1.5950000004537834 Mo
  atom 3.1799999869191473 -5.5079992008121268 -0.0003214072053747 S
  atom 3.1799999884284249 -5.5079991394403462 -3.1896785855095624 S
  atom 0.0000000095431826 -3.6720005694361140 -1.5950000004537834 Mo
  atom 1.5899999869191475 -2.7539992008121268 -0.0003214072053747 S
  atom 1.5899999884284253 -2.7539991394403467 -3.1896785855095624 S
  atom -1.5899999904568165 -0.9180005694361144 -1.5950000004537834 Mo
  atom -0.0000000130808541 0.0000007991878744 -0.0003214072053747 S
  atom -0.0000000115715765 0.0000008605596548 -3.1896785855095624 S
  atom -3.1799999904568161 1.8359994305638869 -1.5950000004537834 Mo
  atom -1.5900000130808531 2.7540007991878741 -0.0003214072053747 S
  atom -1.5900000115715753 2.7540008605596542 -3.1896785855095624 S
  atom -4.7699999904568173 4.5899994305638847 -1.5950000004537834 Mo
  atom -3.1800000130808530 5.5080007991878750 -0.0003214072053747 S
  atom -3.1800000115715754 5.5080008605596555 -3.1896785855095624 S
  atom -6.3599999904568172 7.3439994305638860 -1.5950000004537834 Mo
  atom -4.7700000130808533 8.2620007991878737 -0.0003214072053747 S
  atom -4.7700000115715762 8.2620008605596542 -3.1896785855095624 S
  atom -7.9499999904568170 10.0979994305638883 -1.5950000004537834 Mo
  atom -6.3600000130808532 11.0160007991878750 -0.0003214072053747 S
  atom -6.3600000115715760 11.0160008605596555 -3.1896785855095624 S
  atom -9.5399999904568169 12.8519994305638861 -1.5950000004537834 Mo
  atom -7.9500000130808530 13.7700007991878728 -0.0003214072053747 S
  atom -7.9500000115715759 13.7700008605596533 -3.1896785855095624 S
  atom 9.5400000095431814 -14.6880005694361131 -1.5950000004537834 Mo
  atom 11.1299999869191488 -13.7699992008121264 -0.0003214072053747 S
  atom 11.1299999884284269 -13.7699991394403458 -3.1896785855095624 S
  atom 7.9500000095431815 -11.9340005694361135 -1.5950000004537834 Mo
  atom 9.5399999869191454 -11.0159992008121250 -0.0003214072053747 S
  atom 9.5399999884284234 -11.0159991394403445 -3.1896785855095624 S
  atom 6.3600000095431835 -9.1800005694361122 -1.5950000004537834 Mo
  atom 7.9499999869191456 -8.2619992008121255 -0.0003214072053747 S
  atom 7.9499999884284227 -8.2619991394403449 -3.1896785855095624 S
  atom 4.7700000095431836 -6.4260005694361135 -1.5950000004537834 Mo
  atom 6.3599999869191475 -5.5079992008121268 -0.0003214072053747 S
  atom 6.3599999884284246 -5.5079991394403462 -3.1896785855095624 S
  atom 3.1800000095431842 -3.6720005694361140 -1.5950000004537834 Mo
  atom 4.7699999869191476 -2.7539992008121268 -0.0003214072053747 S
  atom 4.7699999884284248 -2.7539991394403467 -3.1896785855095624 S
  atom 1.5900000095431841 -0.9180005694361144 -1.5950000004537834 Mo
  atom 3.1799999869191473 0.0000007991878744 -0.0003214072053747 S
  atom 3.1799999884284249 0.0000008605596548 -3.1896785855095624 S
  atom 0.0000000095431826 1.8359994305638869 -1.5950000004537834 Mo
  atom 1.5899999869191475 2.7540007991878741 -0.0003214072053747 S
  atom 1.5899999884284253 2.7540008605596542 -3.1896785855095624 S
  atom -1.5899999904568165 4.5899994305638847 -1.5950000004537834 Mo
  atom -0.0000000130808541 5.5080007991878750 -0.0003214072053747 S
  atom -0.0000000115715765 5.5080008605596555 -3.1896785855095624 S
  atom -3.1799999904568161 7.3439994305638860 -1.5950000004537834 Mo
  atom -1.5900000130808531 8.2620007991878737 -0.0003214072053747 S
  atom -1.5900000115715753 8.2620008605596542 -3.1896785855095624 S
  atom -4.7699999904568173 10.0979994305638883 -1.5950000004537834 Mo
  atom -3.1800000130808530 11.0160007991878750 -0.0003214072053747 S
  atom -3.1800000115715754 11.0160008605596555 -3.1896785855095624 S
  atom -6.3599999904568172 12.8519994305638861 -1.5950000004537834 Mo
  atom -4.7700000130808533 13.7700007991878728 -0.0003214072053747 S
  atom -4.7700000115715762 13.7700008605596533 -3.1896785855095624 S
  atom 12.7200000095431847 -14.6880005694361131 -1.5950000004537834 Mo
  atom 14.3099999869191485 -13.7699992008121264 -0.0003214072053747 S
  atom 14.3099999884284266 -13.7699991394403458 -3.1896785855095624 S
  atom 11.1300000095431848 -11.9340005694361135 -1.5950000004537834 Mo
  atom 12.7199999869191487 -11.0159992008121250 -0.0003214072053747 S
  atom 12.7199999884284267 -11.0159991394403445 -3.1896785855095624 S
  atom 9.5400000095431814 -9.1800005694361122 -1.5950000004537834 Mo
  atom 11.1299999869191488 -8.2619992008121255 -0.0003214072053747 S
  atom 11.1299999884284269 -8.2619991394403449 -3.1896785855095624 S
  atom 7.9500000095431815 -6.4260005694361135 -1.5950000004537834 Mo
  atom 9.5399999869191454 -5.5079992008121268 -0.0003214072053747 S
  atom 9.5399999884284234 -5.5079991394403462 -3.1896785855095624 S
  atom 6.3600000095431835 -3.6720005694361140 -1.5950000004537834 Mo
  atom 7.9499999869191456 -2.7539992008121268 -0.0003214072053747 S
  atom 7.9499999884284227 -2.7539991394403467 -3.1896785855095624 S
  atom 4.7700000095431836 -0.9180005694361144 -1.5950000004537834 Mo
  atom 6.3599999869191475 0.0000007991878744 -0.0003214072053747 S
  atom 6.3599999884284246 0.0000008605596548 -3.1896785855095624 S
  atom 3.1800000095431842 1.8359994305638869 -1.5950000004537834 Mo
  atom 4.7699999869191476 2.7540007991878741 -0.0003214072053747 S
  atom 4.7699999884284248 2.7540008605596542 -3.1896785855095624 S
  atom 1.5900000095431841 4.5899994305638847 -1.5950000004537834 Mo
  atom 3.1799999869191473 5.5080007991878750 -0.0003214072053747 S
  atom 3.1799999884284249 5.5080008605596555 -3.1896785855095624 S
  atom 0.0000000095431826 7.3439994305638860 -1.5950000004537834 Mo
  atom 1.5899999869191475 8.2620007991878737 -0.0003214072053747 S
  atom 1.5899999884284253 8.2620008605596542 -3.1896785855095624 S
  atom -1.5899999904568165 10.0979994305638883 -1.5950000004537834 Mo
  atom -0.0000000130808541 11.0160007991878750 -0.0003214072053747 S
  atom -0.0000000115715765 11.0160008605596555 -3.1896785855095624 S
  atom -3.1799999904568161 12.8519994305638861 -1.5950000004537834 Mo
  atom -1.5900000130808531 13.7700007991878728 -0.0003214072053747 S
  atom -1.5900000115715753 13.7700008605596533 -3.1896785855095624 S
  atom 15.9000000095431844 -14.6880005694361131 -1.5950000004537834 Mo
  atom 17.4899999869191483 -13.7699992008121264 -0.0003214072053747 S
  atom 17.4899999884284263 -13.7699991394403458 -3.1896785855095624 S
  atom 14.3100000095431845 -11.9340005694361135 -1.5950000004537834 Mo
  atom 15.8999999869191484 -11.0159992008121250 -0.0003214072053747 S
  atom 15.8999999884284264 -11.0159991394403445 -3.1896785855095624 S
  atom 12.7200000095431847 -9.1800005694361122 -1.5950000004537834 Mo
  atom 14.3099999869191485 -8.2619992008121255 -0.0003214072053747 S
  atom 14.3099999884284266 -8.2619991394403449 -3.1896785855095624 S
  atom 11.1300000095431848 -6.4260005694361135 -1.5950000004537834 Mo
  atom 12.7199999869191487 -5.5079992008121268 -0.0003214072053747 S
  atom 12.7199999884284267 -5.5079991394403462 -3.1896785855095624 S
  atom 9.5400000095431814 -3.6720005694361140 -1.5950000004537834 Mo
  atom 11.1299999869191488 -2.7539992008121268 -0.0003214072053747 S
  atom 11.1299999884284269 -2.7539991394403467 -3.1896785855095624 S
  atom 7.9500000095431815 -0.9180005694361144 -1.5950000004537834 Mo
  atom 9.5399999869191454 0.0000007991878744 -0.0003214072053747 S
  atom 9.5399999884284234 0.0000008605596548 -3.1896785855095624 S
  atom 6.3600000095431835 1.8359994305638869 -1.5950000004537834 Mo
  atom 7.9499999869191456 2.7540007991878741 -0.0003214072053747 S
  atom 7.9499999884284227 2.7540008605596542 -3.1896785855095624 S
  atom 4.7700000095431836 4.5899994305638847 -1.5950000004537834 Mo
  atom 6.3599999869191475 5.5080007991878750 -0.0003214072053747 S
  atom 6.3599999884284246 5.5080008605596555 -3.1896785855095624 S
  atom 3.1800000095431842 7.3439994305638860 -1.5950000004537834 Mo
  atom 4.7699999869191476 8.2620007991878737 -0.0003214072053747 S
  atom 4.7699999884284248 8.2620008605596542 -3.1896785855095624 S
  atom 1.5900000095431841 10.0979994305638883 -1.5950000004537834 Mo
  atom 3.1799999869191473 11.0160007991878750 -0.0003214072053747 S
  atom 3.1799999884284249 11.0160008605596555 -3.1896785855095624 S
  atom 0.0000000095431826 12.8519994305638861 -1.5950000004537834 Mo
  atom 1.5899999869191475 13.7700007991878728 -0.0003214072053747 S
  atom 1.5899999884284253 13.7700008605596533 -3.1896785855095624 S
  atom 19.0800000095431841 -14.6880005694361131 -1.5950000004537834 Mo
  atom 20.6699999869191480 -13.7699992008121264 -0.0003214072053747 S
  atom 20.6699999884284260 -13.7699991394403458 -3.1896785855095624 S
  atom 17.4900000095431842 -11.9340005694361135 -1.5950000004537834 Mo
  atom 19.0799999869191481 -11.0159992008121250 -0.0003214072053747 S
  atom 19.0799999884284261 -11.0159991394403445 -3.1896785855095624 S
  atom 15.9000000095431844 -9.1800005694361122 -1.5950000004537834 Mo
  atom 17.4899999869191483 -8.2619992008121255 -0.0003214072053747 S
  atom 17.4899999884284263 -8.2619991394403449 -3.1896785855095624 S
  atom 14.3100000095431845 -6.4260005694361135 -1.5950000004537834 Mo
  atom 15.8999999869191484 -5.5079992008121268 -0.0003214072053747 S
  atom 15.8999999884284264 -5.5079991394403462 -3.1896785855095624 S
  atom 12.7200000095431847 -3.6720005694361140 -1.5950000004537834 Mo
  atom 14.3099999869191485 -2.7539992008121268 -0.0003214072053747 S
  atom 14.3099999884284266 -2.7539991394403467 -3.1896785855095624 S
  atom 11.1300000095431848 -0.9180005694361144 -1.5950000004537834 Mo
  atom 12.7199999869191487 0.0000007991878744 -0.0003214072053747 S
  atom 12.7199999884284267 0.0000008605596548 -3.1896785855095624 S
  atom 9.5400000095431814 1.8359994305638869 -1.5950000004537834 Mo
  atom 11.1299999869191488 2.7540007991878741 -0.0003214072053747 S
  atom 11.1299999884284269 2.7540008605596542 -3.1896785855095624 S
  atom 7.9500000095431815 4.5899994305638847 -1.5950000004537834 Mo
  atom 9.5399999869191454 5.5080007991878750 -0.0003214072053747 S
  atom 9.5399999884284234 5.5080008605596555 -3.1896785855095624 S
  atom 6.3600000095431835 7.3439994305638860 -1.5950000004537834 Mo
  atom 7.9499999869191456 8.2620007991878737 -0.0003214072053747 S
  atom 7.9499999884284227 8.2620008605596542 -3.1896785855095624 S
  atom 4.7700000095431836 10.0979994305638883 -1.5950000004537834 Mo
  atom 6.3599999869191475 11.0160007991878750 -0.0003214072053747 S
  atom 6.3599999884284246 11.0160008605596555 -3.1896785855095624 S
  atom 3.1800000095431842 12.8519994305638861 -1.5950000004537834 Mo
  atom 4.7699999869191476 13.7700007991878728 -0.0003214072053747 S
  atom 4.7699999884284248 13.7700008605596533 -3.1896785855095624 S
  atom 22.2600000095431838 -14.6880005694361131 -1.5950000004537834 Mo
  atom 23.8499999869191477 -13.7699992008121264 -0.0003214072053747 S
  atom 23.8499999884284257 -13.7699991394403458 -3.1896785855095624 S
  atom 20.6700000095431839 -11.9340005694361135 -1.5950000004537834 Mo
  atom 22.2599999869191478 -11.0159992008121250 -0.0003214072053747 S
  atom 22.2599999884284259 -11.0159991394403445 -3.1896785855095624 S
  atom 19.0800000095431841 -9.1800005694361122 -1.5950000004537834 Mo
  atom 20.6699999869191480 -8.2619992008121255 -0.0003214072053747 S
  atom 20.6699999884284260 -8.2619991394403449 -3.1896785855095624 S
  atom 17.4900000095431842 -6.4260005694361135 -1.5950000004537834 Mo
  atom 19.0799999869191481 -5.5079992008121268 -0.0003214072053747 S
  atom 19.0799999884284261 -5.5079991394403462 -3.1896785855095624 S
[...]
  | Total energy evaluation                     :        0.001 s           0.000 s

  Partial memory accounting:
  | Current value for overall tracked memory usage:
  |   Minimum:        3.551 MB (on task  319)
  |   Maximum:        4.698 MB (on task  999)
  |   Average:        4.157 MB
  | Peak value for overall tracked memory usage:
  |   Minimum:        9.312 MB (on task  319 after allocating wave)
  |   Maximum:       15.287 MB (on task  732 after allocating wave)
  |   Average:       12.360 MB
  | Largest tracked array allocation so far:
  |   Minimum:        1.892 MB (hamiltonian_shell on task  507)
  |   Maximum:        4.200 MB (hamiltonian_shell on task   51)
  |   Average:        2.857 MB
  Note:  These values currently only include a subset of arrays which are explicitly tracked.
  The "true" memory usage will be greater.
------------------------------------------------------------
  Available memory after initialize_scf [GB]:    487.10
  Time for density update prior                :  max(cpu_time)    wall_clock(cpu1)
  | self-consistency iterative process          :        0.469 s           0.472 s
------------------------------------------------------------
Convergence:    q app. |  density  | eigen (eV) | Etot (eV) |             . |       CPU time |     Clock time
  SCF    1 :  0.42E-12 |  0.32E+01 |  -0.19E+04 |  0.48E+02 |             . |        6.246 s |        6.304 s
  SCF    2 : -0.11E-11 |  0.28E+01 |  -0.12E+05 |  0.14E+03 |             . |        5.897 s |        5.925 s
  SCF    3 : -0.11E-11 |  0.94E+00 |   0.14E+05 | -0.85E+02 |             . |        5.923 s |        5.951 s
  SCF    4 :  0.47E-12 |  0.22E+01 |  -0.48E+04 |  0.85E+02 |             . |        5.956 s |        5.983 s
  SCF    5 : -0.30E-11 |  0.79E+00 |  -0.17E+04 |  0.92E+01 |             . |        5.913 s |        5.940 s
  SCF    6 :  0.11E-11 |  0.42E+00 |  -0.10E+04 |  0.22E+01 |             . |        5.856 s |        5.883 s
  SCF    7 :  0.17E-11 |  0.29E+00 |  -0.11E+04 |  0.17E+01 |             . |        5.780 s |        5.806 s
  SCF    8 :  0.62E-12 |  0.62E-01 |  -0.35E+03 |  0.11E+00 |             . |        6.020 s |        6.046 s
  SCF    9 :  0.42E-13 |  0.25E-01 |   0.32E+02 | -0.76E-02 |             . |        6.048 s |        6.076 s
  SCF   10 : -0.11E-11 |  0.14E-01 |   0.47E+02 | -0.11E-01 |             . |        5.966 s |        5.998 s
  SCF   11 :  0.17E-11 |  0.50E-02 |   0.35E+01 |  0.19E-02 |             . |        5.950 s |        6.037 s
  SCF   12 :  0.17E-12 |  0.36E-02 |   0.23E+02 | -0.19E-02 |             . |        5.934 s |        6.021 s
  SCF   13 : -0.49E-12 |  0.88E-03 |   0.13E+01 |  0.39E-03 |             . |        6.002 s |        6.087 s
  SCF   14 : -0.72E-12 |  0.61E-03 |   0.22E+01 |  0.15E-04 |             . |        5.977 s |        6.063 s
  SCF   15 : -0.12E-11 |  0.23E-03 |  -0.84E-01 |  0.59E-04 |             . |        5.953 s |        6.041 s
  SCF   16 : -0.15E-11 |  0.16E-03 |   0.21E+00 |  0.50E-04 |             . |        6.134 s |        6.225 s
  SCF   17 :  0.61E-12 |  0.91E-04 |  -0.22E-01 |  0.18E-04 |             . |        5.931 s |        6.019 s
  SCF   18 : -0.85E-12 |  0.62E-04 |   0.51E-01 |  0.28E-04 |             . |        6.050 s |        6.139 s
  SCF   19 :  0.97E-12 |  0.40E-04 |   0.54E-01 | -0.31E-06 |             . |        5.918 s |        6.004 s
  SCF   20 : -0.19E-11 |  0.27E-04 |   0.62E-01 | -0.14E-05 |             . |        6.141 s |        6.229 s
  SCF   21 : -0.84E-12 |  0.18E-04 |   0.12E+00 | -0.16E-04 |             . |        6.013 s |        6.099 s
  SCF   22 : -0.19E-11 |  0.11E-04 |   0.51E-01 | -0.54E-05 |             . |        6.038 s |        6.123 s
  SCF   23 :  0.12E-11 |  0.73E-05 |   0.18E-01 | -0.34E-05 |             . |        6.090 s |        6.177 s
  SCF   24 : -0.18E-11 |  0.53E-05 |   0.17E-01 | -0.49E-06 |             . |        5.936 s |        6.021 s
  SCF   25 : -0.15E-11 |  0.47E-05 |   0.47E-02 | -0.21E-05 |             . |        5.976 s |        6.061 s
  SCF   26 : -0.68E-12 |  0.22E-05 |   0.46E-02 | -0.21E-06 |             . |        6.037 s |        6.125 s
  SCF   27 :  0.36E-12 |  0.15E-05 |   0.24E-02 | -0.45E-06 |             . |        6.120 s |        6.210 s
  SCF   28 :  0.93E-12 |  0.11E-05 |   0.17E-02 | -0.47E-06 |             . |        5.957 s |        6.044 s
  SCF   29 :  0.20E-11 |  0.74E-06 |   0.13E-02 | -0.41E-06 |             . |        5.980 s |        6.008 s
  SCF   30 : -0.20E-12 |  0.47E-06 |   0.79E-03 | -0.20E-06 |             . |        6.090 s |        6.141 s
  SCF   31 :  0.80E-12 |  0.29E-06 |   0.47E-03 | -0.30E-06 |             . |        5.950 s |        6.038 s
  SCF   32 :  0.10E-11 |  0.14E-06 |  -0.24E-03 |  0.19E-07 |             . |        5.975 s |        6.061 s
  SCF   33 : -0.75E-12 |  0.99E-07 |  -0.29E-03 | -0.35E-07 |             . |        5.425 s |        5.502 s

  Total energy components:
  | Sum of eigenvalues            :     -354783.04987245 Ha    -9654137.98416198 eV
  | XC energy correction          :      -21242.81609315 Ha     -578046.43657354 eV
  | XC potential correction       :       27619.74087526 Ha      751571.38874706 eV
  | Free-atom electrostatic energy:     -243599.99951113 Ha    -6628693.25089713 eV
  | Hartree energy correction     :         331.08059319 Ha        9009.16132184 eV
  | Ionic    embedding energy     :         284.93693203 Ha        7753.52841561 eV
  | Density  embedding energy     :        -284.31709571 Ha       -7736.66181138 eV
  | Nonlocal embedding energy     :           0.00000000 Ha           0.00000000 eV
  | External embedding energy     :           0.61983631 Ha          16.86660423 eV
  | vdW energy correction         :           0.00000000 Ha           0.00000000 eV
  | Entropy correction            :           0.00000000 Ha           0.00000000 eV
  | ---------------------------
  | Total energy                  :     -591390.72691257 Ha   -16092560.45975237 eV
  | Total energy, T -> 0          :     -591390.72691257 Ha   -16092560.45975237 eV  <-- do not rely on this value for anything but (periodic) metals
  | Electronic free energy        :     -591390.72691257 Ha   -16092560.45975237 eV

  Total energy including external embedding contributions:
  | Total energy + embedding      :     -591390.10707625 Ha   -16092543.59314814 eV
  | Total energy + embedding, T->0:     -591390.10707625 Ha   -16092543.59314814 eV  <-- do not rely on this value for anything but (periodic) metals
  | Elec. free energy + embedding :     -591390.10707625 Ha   -16092543.59314814 eV

  Derived energy quantities:
  | Kinetic energy                :      606888.88577792 Ha    16514286.81967947 eV
  | Electrostatic energy          :    -1177321.11369305 Ha   -32036537.50466968 eV
  | Energy correction for multipole
  | error in Hartree potential    :          -0.12649948 Ha          -3.44222600 eV
  | Sum of eigenvalues per atom                           :      -26595.42144397 eV
  | Total energy (T->0) per atom                          :      -44332.12247866 eV  <-- do not rely on this value for anything but (periodic) metals
  | Electronic free energy per atom                       :      -44332.12247866 eV
  Highest occupied state (VBM) at     -6.87584811 eV (relative to internal zero)
  | Occupation number:      2.00000000
  | K-point:       1 at    0.000000    0.000000    0.000000 (in units of recip. lattice)

  Lowest unoccupied state (CBM) at    -4.97649942 eV (relative to internal zero)
  | Occupation number:      0.00000000
  | K-point:       1 at    0.000000    0.000000    0.000000 (in units of recip. lattice)

  The gap value is above 0.2 eV. Unless you are using a very sparse k-point grid,
  this system is most likely an insulator or a semiconductor.
  ESTIMATED overall HOMO-LUMO gap:      1.89934869 eV between HOMO at k-point 1 and LUMO at k-point 1

  | Chemical Potential                          :    -5.92617376 eV
  | Note that, for insulating systems, the printed 'chemical potential' value is not uniquely defined.
  | It can be anywhere in the energy gap, as long as it correctly separates occupied and unoccupied states.
  | In systems with a gap, the physically relevant chemical potential is the VBM or HOMO.
  | Potential vacuum level, "upper" slab surface    :    -0.23913021 eV
  | Potential vacuum level, "lower" slab surface    :     0.30532428 eV
  | Work function ("upper" slab surface)            :     5.68704355 eV
  | Work function ("lower" slab surface)            :     6.23149804 eV
  *** Band gap may exist, work functions will also be defined using VBM and CBM.
  | VBM (reference: upper vacuum level)             :     6.63671789 eV
  | Work function ("upper" surface, reference: VBM) :     6.63671789 eV
  | Work function ("lower" surface, reference: VBM) :     7.18117239 eV
  | CBM (reference: upper vacuum level)             :     4.73736921 eV
  | Work function ("upper" surface, reference: CBM) :     4.73736921 eV
  | Work function ("lower" surface, reference: CBM) :     5.28182370 eV

  Self-consistency cycle converged.


  Converging periodic supercell size for vdw calculation.
  Convergence accuracy (and time!) can be adjusted using the vdw_convergence_threshold keyword.

  Total energy components:
  | Sum of eigenvalues            :     -354783.04987245 Ha    -9654137.98416198 eV
  | XC energy correction          :      -21242.81609315 Ha     -578046.43657354 eV
  | XC potential correction       :       27619.74087526 Ha      751571.38874706 eV
  | Free-atom electrostatic energy:     -243599.99951113 Ha    -6628693.25089713 eV
  | Hartree energy correction     :         331.08059319 Ha        9009.16132184 eV
  | Ionic    embedding energy     :         284.93693203 Ha        7753.52841561 eV
  | Density  embedding energy     :        -284.31709571 Ha       -7736.66181138 eV
  | Nonlocal embedding energy     :           0.00000000 Ha           0.00000000 eV
  | External embedding energy     :           0.61983631 Ha          16.86660423 eV
  | vdW energy correction         :          -2.65640822 Ha         -72.28454533 eV
  | Entropy correction            :           0.00000000 Ha           0.00000000 eV
  | ---------------------------
  | Total energy                  :     -591393.38332078 Ha   -16092632.74429771 eV
  | Total energy, T -> 0          :     -591393.38332078 Ha   -16092632.74429771 eV  <-- do not rely on this value for anything but (periodic) metals
  | Electronic free energy        :     -591393.38332078 Ha   -16092632.74429771 eV

  Total energy including external embedding contributions:
  | Total energy + embedding      :     -591392.76348447 Ha   -16092615.87769347 eV
  | Total energy + embedding, T->0:     -591392.76348447 Ha   -16092615.87769347 eV  <-- do not rely on this value for anything but (periodic) metals
  | Elec. free energy + embedding :     -591392.76348447 Ha   -16092615.87769347 eV

  Derived energy quantities:
  | Kinetic energy                :      606888.88577792 Ha    16514286.81967947 eV
  | Electrostatic energy          :    -1177321.11369305 Ha   -32036537.50466968 eV
  | Energy correction for multipole
  | error in Hartree potential    :          -0.12649948 Ha          -3.44222600 eV
  | Sum of eigenvalues per atom                           :      -26595.42144397 eV
  | Total energy (T->0) per atom                          :      -44332.32160964 eV  <-- do not rely on this value for anything but (periodic) metals
  | Electronic free energy per atom                       :      -44332.32160964 eV
  ------------------------------------------------------------
   Computing dipole for complete unit cell:
  | Total dipole moment in z-direction [eAng]          :          0.318916589729244E+01

  Energy and forces in a compact form:
  | Total energy uncorrected      :         -0.160926158776935E+08 eV
  | Total energy corrected        :         -0.160926158776935E+08 eV  <-- do not rely on this value for anything but (periodic) metals
  | Electronic free energy        :         -0.160926158776935E+08 eV


  Writing energy levels:

------------------------------------------------------------------------------
  Final output of selected total energy values:

  The following output summarizes some interesting total energy values
  at the end of a run (AFTER all relaxation, molecular dynamics, etc.).

  | Total energy of the DFT / Hartree-Fock s.c.f. calculation      :      -16092615.877693472 eV
  | Final zero-broadening corrected energy (caution - metals only) :      -16092615.877693472 eV
  | For reference only, the value of 1 Hartree used in FHI-aims is :             27.211384500 eV
  | For reference only, the overall average (free atom contribution
  | + realspace contribution) of the electrostatic potential after
  | s.c.f. convergence is                                          :             -1.090807881 eV

  Before relying on these values, please be sure to understand exactly which
  total energy value is referred to by a given number. Different objects may
  all carry the same name 'total energy'. Definitions:

  Total energy of the DFT / Hartree-Fock s.c.f. calculation:
  | Note that this energy does not include ANY quantities calculated after the
  | s.c.f. cycle, in particular not ANY RPA, MP2, etc. many-body perturbation terms.

  Final zero-broadening corrected energy:
  | For metallic systems only, a broadening of the occupation numbers at the Fermi
  | level can be extrapolated back to zero broadening by an electron-gas inspired
  | formula. For all systems that are not real metals, this value can be
  | meaningless and should be avoided.

------------------------------------------------------------------------------
  Methods described in the following list of references were used in this FHI-aims run.
  If you publish the results, please make sure to cite these reference if they apply.
  FHI-aims is an academic code, and for our developers (often, Ph.D. students
  and postdocs), scientific credit in the community is essential.
  Thank you for helping us!

  For any use of FHI-aims, please cite:

    Volker Blum, Ralf Gehrke, Felix Hanke, Paula Havu, Ville Havu,
    Xinguo Ren, Karsten Reuter, and Matthias Scheffler
    'Ab initio molecular simulations with numeric atom-centered orbitals'
    Computer Physics Communications 180, 2175-2196 (2009)
    http://doi.org/10.1016/j.cpc.2009.06.022


  For pseudopotentials or QM/MM embedding infrastructure used in your run, please cite:

    D. Berger, A. J. Logsdail, H. Oberhofer, M. R. Farrow, C. R. A. Catlow, P. Sherwood,
    A. A. Sokol, V. Blum, and K. Reuter,
    'Embedded-cluster calculations in a numeric atomic orbital'
    'density-functional theory framework'
    The Journal of Chemical Physics 141, (2014).
    http://doi.org/10.1063/1.4885816


  The provided symmetry information was generated with SPGlib:

    Atsushi Togo, Yusuke Seto, Dimitar Pashov
    SPGlib 1.7.3 obtained from http://spglib.sourceforge.net
    Licence: New BSD license
    Copyright (C) 2008 Atsushi Togo


  The ELSI infrastructure was used in your run to solve the Kohn-Sham electronic structure.
  Please check out https://wordpress.elsi-interchange.org to learn more.
  If scalability is important for your project, please acknowledge ELSI by citing:

    V. W-z. Yu, F. Corsetti, A. Garcia, W. P. Huhn, M. Jacquelin, W. Jia,
    B. Lange, L. Lin, J. Lu, W. Mi, A. Seifitokaldani, A. Vazquez-Mayagoitia,
    C. Yang, H. Yang, and V. Blum
    'ELSI: A unified software interface for Kohn-Sham electronic structure solvers'
    Computer Physics Communications 222, 267-285 (2018).
    http://doi.org/10.1016/j.cpc.2017.09.007


  For the real-space grid partitioning and parallelization used in this calculation, please cite:

    Ville Havu, Volker Blum, Paula Havu, and Matthias Scheffler,
    'Efficient O(N) integration for all-electron electronic structure calculation'
    'using numerically tabulated basis functions'
    Journal of Computational Physics 228, 8367-8379 (2009).
    http://doi.org/10.1016/j.jcp.2009.08.008

  Of course, there are many other important community references, e.g., those cited in the
  above references. Our list is limited to references that describe implementations in the
  FHI-aims code. The reason is purely practical (length of this list) - please credit others as well.
------------------------------------------------------------
Warnings summary:

At least    1 warnings were raised during execution.
** WARNING:
 * A warning was issued further up regarding the accuracy of onsite integrals.
   An integral with a negative eigenvalue was among the flagged integrals.
   In most standard situations, this warning is probably harmless.
   If needed, this can be verified by adjusting the radial_multiplier flag.
** END OF WARNING
** WARNING:
   Your are running FHI-aims on many cores. To achieve optimal
   performance for your particular architecture, it might be necessary
   to tune the following compilation and calculation settings:
    * Choosing the right Scalapack and MPI Libraries for your
       architecture is essential. If in doubt, refer to the
       documentation or the sysadmin of your supercomputer.
    * Please review our documentation of Makefile choices, particularly
       for ELPA, in the manual.
    * Some of the following FHI-aims keywords or combination thereof
       may be helpful:
        - FHI-aims setting: use_local_index .true.
        - FHI-aims setting: load_balancing .true.
        - FHI-aims setting: use_alltoall .false.
   Be mindful that the usefulness of these keywords can depend on your
   actual run and on the actual computer you are using. Please check
   their description in the manual and perform specific benchmarks to
   determine what is optimal for your computer. More detailed
   information and examples can be found at:
 http://aimsclub.fhi-berlin.mpg.de/wiki/index.php/Large_scale_settings
** END OF WARNING

------------------------------------------------------------
          Leaving FHI-aims.
          Date     :  20250424, Time     :  184820.501

          Computational steps:
          | Number of self-consistency cycles          :           33
          | Number of SCF (re)initializations          :            1

          Detailed time accounting                     :  max(cpu_time)    wall_clock(cpu1)
          | Total time                                  :      209.186 s         213.139 s
          | Preparation time                            :        0.271 s           0.272 s
          | Boundary condition initalization            :        0.247 s           0.263 s
          | Grid partitioning                           :        0.961 s           0.966 s
          | Preloading free-atom quantities on grid     :        0.124 s           0.125 s
          | Free-atom superposition energy              :        0.018 s           0.018 s
          | Total time for integrations                 :        5.495 s           5.567 s
          | Total time for solution of K.-S. equations  :       99.286 s         100.286 s
          | Total time for density update               :       14.772 s          14.968 s
          | Total time for mixing & preconditioning     :       72.356 s          73.170 s
          | Total time for Hartree multipole update     :        5.078 s           5.127 s
          | Total time for Hartree multipole sum        :        6.315 s           6.394 s
          | Total time for total energy evaluation      :        0.007 s           0.028 s
          | Total time for scaled ZORA corrections      :        0.000 s           0.000 s
          | Total time for vdW-like corrections         :        0.529 s           0.535 s
          | Total time for QM/MM embedding              :        0.000 s           0.000 s


          Have a nice day.
------------------------------------------------------------
